/*--------------------------------*- C++ -*----------------------------------*\
  =========                 |
  \\      /  F ield         | OpenFOAM: The Open Source CFD Toolbox
   \\    /   O peration     | Website:  https://openfoam.org
    \\  /    A nd           | Version:  7
     \\/     M anipulation  |
\*---------------------------------------------------------------------------*/
FoamFile
{
    version     2.0;
    format      ascii;
    class       volScalarField;
    location    "1/filmRegion";
    object      Cp;
}
// * * * * * * * * * * * * * * * * * * * * * * * * * * * * * * * * * * * * * //

dimensions      [0 2 -2 -1 0 0 0];

internalField   nonuniform List<scalar> 
400
(
4188.15
4309.74
4390.95
4379.04
4335.28
4285.52
4275.71
4266.38
4248.91
4244.44
4244.47
4249
4266.41
4275.72
4285.52
4335.27
4379.04
4390.96
4309.76
4188.16
4176.58
4200.93
4308.15
4425.53
4524.74
4509.2
4440.05
4424.61
4393.27
4358.72
4358.72
4393.13
4424.61
4440.04
4509.18
4524.73
4425.54
4308.17
4200.93
4176.58
4182.57
4177.86
4178.47
4249.31
4447.26
4576.34
4616.77
4576.44
4523.76
4474.64
4474.59
4523.5
4576.42
4616.75
4576.33
4447.3
4249.35
4178.46
4177.86
4182.57
4183.17
4180.03
4177.74
4177.07
4221.27
4448.2
4643.18
4741.75
4664.33
4566.94
4566.84
4664.07
4741.64
4643.14
4448.2
4221.29
4177.07
4177.75
4180.03
4183.17
4183.05
4179.65
4177.84
4176.49
4177.91
4238.24
4529.01
4798.23
4819.95
4659.71
4659.57
4819.16
4798.07
4528.96
4238.23
4177.91
4176.49
4177.84
4179.65
4183.05
4182.48
4178.87
4177.36
4176.42
4176.39
4184.06
4320.05
4721.15
4908.19
4744.15
4743.97
4907.46
4720.98
4319.98
4184.06
4176.39
4176.42
4177.36
4178.87
4182.48
4182.01
4178.51
4176.83
4176.28
4176.66
4179.68
4217.33
4547.28
4911.81
4820.19
4820
4911.11
4547.07
4217.29
4179.68
4176.66
4176.28
4176.83
4178.51
4182.01
4181.08
4177.6
4176.3
4177.66
4178.95
4181.85
4203.91
4393.34
4857.26
4857.01
4856.84
4856.69
4393.17
4203.89
4181.85
4178.95
4177.66
4176.3
4177.6
4181.09
4180.22
4176.6
4177.95
4187.49
4186.84
4187.85
4209.57
4376.9
4823.92
4857.93
4857.83
4823.51
4376.79
4209.52
4187.84
4186.84
4187.49
4177.95
4176.6
4180.22
4178.88
4177.03
4208.68
4221.36
4204.05
4196.54
4221.3
4390.58
4779.47
4801.38
4801.33
4779.23
4390.53
4221.29
4196.54
4204.05
4221.36
4208.67
4177.04
4178.88
4176.9
4192.46
4255.65
4249.52
4224
4218.24
4247.55
4437.03
4708.36
4708.86
4708.82
4708.23
4437.1
4247.57
4218.25
4224.03
4249.53
4255.63
4192.44
4176.9
4176.44
4189.95
4241.34
4271.96
4262.84
4264.51
4316.99
4492.18
4596.98
4584.49
4584.52
4596.95
4492.27
4317.04
4264.54
4262.84
4271.96
4241.31
4189.93
4176.44
4176.29
4181.85
4202.02
4244.86
4284.68
4319.26
4361.89
4421.64
4444.31
4443.07
4443.09
4444.34
4421.68
4361.93
4319.26
4284.65
4244.83
4202
4181.84
4176.29
4176.28
4177.9
4180.93
4193.6
4221.54
4253.34
4284.26
4305.75
4324.6
4318.78
4318.78
4324.56
4305.76
4284.26
4253.33
4221.52
4193.58
4180.93
4177.9
4176.28
4176.29
4177
4177.6
4178.84
4183.68
4191.47
4204.23
4217.77
4229.29
4236.14
4236.13
4229.28
4217.76
4204.23
4191.47
4183.68
4178.84
4177.61
4177
4176.29
4176.27
4176.84
4177.05
4177.09
4177.88
4178.95
4180.57
4182.5
4184.83
4186.24
4186.24
4184.83
4182.5
4180.57
4178.95
4177.88
4177.1
4177.05
4176.84
4176.27
4178.08
4177.42
4177.34
4177.38
4177.19
4177.04
4176.91
4176.79
4176.69
4176.63
4176.63
4176.69
4176.79
4176.9
4177.03
4177.19
4177.37
4177.34
4177.42
4178.08
4184.39
4184.37
4184.37
4184.37
4184.37
4184.35
4184.34
4184.34
4184.33
4184.32
4184.32
4184.33
4184.34
4184.34
4184.35
4184.37
4184.37
4184.37
4184.37
4184.39
4184.61
4184.61
4184.61
4184.6
4184.6
4184.59
4184.59
4184.59
4184.59
4184.59
4184.59
4184.59
4184.59
4184.59
4184.59
4184.6
4184.6
4184.61
4184.61
4184.61
4184.63
4184.63
4184.63
4184.63
4184.63
4184.62
4184.62
4184.62
4184.62
4184.62
4184.62
4184.62
4184.62
4184.62
4184.62
4184.63
4184.63
4184.63
4184.63
4184.63
)
;

boundaryField
{
    outlet
    {
        type            zeroGradient;
    }
    inlet
    {
        type            zeroGradient;
    }
    coupledWall_top
    {
        type            zeroGradient;
    }
    region0_to_filmRegion_coupledWall
    {
        type            zeroGradient;
    }
    side1
    {
        type            zeroGradient;
    }
    side2
    {
        type            zeroGradient;
    }
}


// ************************************************************************* //
