/*--------------------------------*- C++ -*----------------------------------*\
  =========                 |
  \\      /  F ield         | OpenFOAM: The Open Source CFD Toolbox
   \\    /   O peration     | Website:  https://openfoam.org
    \\  /    A nd           | Version:  7
     \\/     M anipulation  |
\*---------------------------------------------------------------------------*/
FoamFile
{
    version     2.0;
    format      ascii;
    class       volScalarField;
    location    "1/filmRegion";
    object      deltaf;
}
// * * * * * * * * * * * * * * * * * * * * * * * * * * * * * * * * * * * * * //

dimensions      [0 1 0 0 0 0 0];

internalField   nonuniform List<scalar> 
400
(
4.3864e-07
1.00409e-08
1.02628e-08
1.00404e-08
1.00667e-08
1.07151e-08
1.64361e-08
5.04049e-08
1.00618e-08
1.00563e-08
1.00563e-08
1.00618e-08
5.03742e-08
1.64348e-08
1.07151e-08
1.00667e-08
1.00404e-08
1.02628e-08
1.00409e-08
4.38646e-07
4.87141e-07
6.06528e-08
9.59181e-09
1.00564e-08
1.00254e-08
9.98936e-09
9.95419e-09
1.00183e-08
1.00582e-08
1.042e-08
1.04208e-08
1.00592e-08
1.00184e-08
9.95419e-09
9.98935e-09
1.00254e-08
1.00564e-08
9.59186e-09
6.06801e-08
4.87137e-07
7.99735e-07
2.21239e-07
1.00075e-08
1.00652e-08
1.01385e-08
1.00733e-08
9.99507e-09
9.98644e-09
1.00191e-08
1.00606e-08
1.00606e-08
1.00193e-08
9.98651e-09
9.99506e-09
1.00733e-08
1.01385e-08
1.00662e-08
1.00074e-08
2.18459e-07
7.99591e-07
8.3626e-07
2.55366e-07
9.86861e-09
9.79092e-09
9.86446e-09
1.01566e-08
1.00415e-08
1.00094e-08
1.00104e-08
1.00485e-08
1.00485e-08
1.00106e-08
1.00094e-08
1.00415e-08
1.01566e-08
9.86447e-09
9.78966e-09
9.90057e-09
2.61444e-07
8.36703e-07
8.37962e-07
3.29197e-07
9.98313e-09
9.53921e-09
9.70619e-09
9.97069e-09
1.07392e-08
1.00303e-08
1.0016e-08
1.0057e-08
1.0057e-08
1.0016e-08
1.00303e-08
1.07402e-08
9.97071e-09
9.70629e-09
9.53951e-09
9.98322e-09
3.27454e-07
8.37985e-07
8.05525e-07
2.1009e-07
9.35629e-09
9.78145e-09
9.65611e-09
9.79354e-09
2.34729e-08
1.00995e-08
1.00408e-08
1.00866e-08
1.00865e-08
1.00408e-08
1.00996e-08
2.34904e-08
9.79354e-09
9.65616e-09
9.78203e-09
9.35616e-09
2.09438e-07
8.05286e-07
8.04156e-07
2.0225e-07
9.35885e-09
9.58069e-09
9.61596e-09
9.69055e-09
9.9723e-09
1.04922e-08
1.00965e-08
1.02183e-08
1.02181e-08
1.00965e-08
1.04933e-08
9.97224e-09
9.69055e-09
9.61597e-09
9.58059e-09
9.3589e-09
2.02732e-07
8.04067e-07
8.2046e-07
5.88823e-08
9.99626e-09
9.58942e-09
9.85414e-09
9.67299e-09
9.9165e-09
1.22188e-08
1.03222e-08
1.06667e-08
1.0666e-08
1.0322e-08
1.2223e-08
9.91644e-09
9.67292e-09
9.85516e-09
9.58929e-09
9.9962e-09
6.3628e-08
8.20509e-07
8.39414e-07
3.12179e-07
9.28983e-09
1.94696e-08
9.90733e-09
9.6023e-09
9.90822e-09
1.5702e-08
1.12417e-08
1.2102e-08
1.21003e-08
1.12416e-08
1.57097e-08
9.90804e-09
9.60222e-09
9.90901e-09
1.94418e-08
9.28982e-09
3.13399e-07
8.39467e-07
8.67759e-07
3.54513e-07
2.79182e-07
2.50141e-07
9.94724e-09
9.59038e-09
1.33645e-07
2.7238e-08
1.64621e-08
1.90665e-08
1.90611e-08
1.64601e-08
2.72401e-08
1.33678e-07
9.59023e-09
9.94812e-09
2.5014e-07
2.7935e-07
3.57507e-07
8.6778e-07
8.8359e-07
7.78471e-07
5.22028e-07
3.76139e-07
2.92991e-07
2.86606e-07
1.45166e-07
5.46589e-08
3.83052e-08
4.42001e-08
4.41853e-08
3.82961e-08
5.46416e-08
1.45182e-07
2.8662e-07
2.93543e-07
3.76178e-07
5.22544e-07
7.78802e-07
8.83606e-07
8.98166e-07
8.91633e-07
8.11862e-07
5.66281e-07
4.53404e-07
3.3012e-07
2.23006e-07
1.39687e-07
1.18514e-07
1.25118e-07
1.2509e-07
1.18488e-07
1.39649e-07
2.22995e-07
3.30206e-07
4.53515e-07
5.666e-07
8.12203e-07
8.91667e-07
8.98183e-07
9.09249e-07
9.08592e-07
8.96815e-07
8.25908e-07
6.94599e-07
5.5979e-07
4.43314e-07
3.70174e-07
3.29123e-07
3.1174e-07
3.11771e-07
3.29123e-07
3.7016e-07
4.43334e-07
5.59898e-07
6.94821e-07
8.26175e-07
8.96844e-07
9.08591e-07
9.09256e-07
9.14403e-07
9.14692e-07
9.18132e-07
9.15331e-07
8.96126e-07
8.62494e-07
7.72981e-07
7.15324e-07
5.90476e-07
6.71759e-07
6.71787e-07
5.90887e-07
7.15365e-07
7.73036e-07
8.6258e-07
8.96196e-07
9.1533e-07
9.18128e-07
9.14689e-07
9.14403e-07
9.18678e-07
9.21831e-07
9.23794e-07
9.25302e-07
9.25818e-07
9.25038e-07
9.16111e-07
9.2421e-07
8.86851e-07
7.96625e-07
7.96898e-07
8.86921e-07
9.24216e-07
9.16119e-07
9.25036e-07
9.25813e-07
9.25297e-07
9.23791e-07
9.21829e-07
9.18677e-07
9.24888e-07
9.27778e-07
9.29994e-07
9.31285e-07
9.3207e-07
9.32415e-07
9.32934e-07
9.33363e-07
9.33715e-07
9.33659e-07
9.3366e-07
9.33715e-07
9.33362e-07
9.32933e-07
9.32414e-07
9.32069e-07
9.31284e-07
9.29995e-07
9.27779e-07
9.24888e-07
3.63723e-06
3.60228e-06
3.60636e-06
3.6042e-06
3.60499e-06
3.60243e-06
3.6011e-06
3.59919e-06
3.59834e-06
3.59781e-06
3.59781e-06
3.59833e-06
3.59919e-06
3.60109e-06
3.60242e-06
3.60498e-06
3.60418e-06
3.60634e-06
3.60226e-06
3.63722e-06
0.000138936
0.000137827
0.000137831
0.000137754
0.000137736
0.000137685
0.000137653
0.00013762
0.000137601
0.000137591
0.000137591
0.000137601
0.00013762
0.000137652
0.000137684
0.000137735
0.000137754
0.00013783
0.000137826
0.000138936
0.000375682
0.000372764
0.000372845
0.000372867
0.000372924
0.000372925
0.000372937
0.000372937
0.000372938
0.000372938
0.000372938
0.000372938
0.000372937
0.000372937
0.000372925
0.000372924
0.000372867
0.000372845
0.000372764
0.000375682
0.000281624
0.000280959
0.000281013
0.000281102
0.000281157
0.000281187
0.00028122
0.000281244
0.000281259
0.000281266
0.000281266
0.000281259
0.000281244
0.00028122
0.000281188
0.000281157
0.000281102
0.000281013
0.00028096
0.000281625
)
;

boundaryField
{
    outlet
    {
        type            zeroGradient;
    }
    inlet
    {
        type            fixedValue;
        value           uniform 0.0006;
    }
    coupledWall_top
    {
        type            zeroGradient;
    }
    region0_to_filmRegion_coupledWall
    {
        type            zeroGradient;
    }
    side1
    {
        type            zeroGradient;
    }
    side2
    {
        type            zeroGradient;
    }
}


// ************************************************************************* //
