/*--------------------------------*- C++ -*----------------------------------*\
  =========                 |
  \\      /  F ield         | OpenFOAM: The Open Source CFD Toolbox
   \\    /   O peration     | Website:  https://openfoam.org
    \\  /    A nd           | Version:  7
     \\/     M anipulation  |
\*---------------------------------------------------------------------------*/
FoamFile
{
    version     2.0;
    format      ascii;
    class       volScalarField;
    location    "1/filmRegion";
    object      kappa;
}
// * * * * * * * * * * * * * * * * * * * * * * * * * * * * * * * * * * * * * //

dimensions      [1 1 -3 -1 0 0 0];

internalField   nonuniform List<scalar> 
400
(
0.657689
0.685093
0.677656
0.679061
0.683453
0.685579
0.685362
0.684874
0.683047
0.68235
0.682354
0.683059
0.684876
0.685363
0.685579
0.683454
0.679061
0.677655
0.685093
0.657704
0.626408
0.667559
0.685162
0.673292
0.659885
0.662004
0.671378
0.673413
0.677375
0.681282
0.681282
0.677392
0.673412
0.67138
0.662007
0.659886
0.673291
0.685161
0.667559
0.626408
0.609473
0.620382
0.643089
0.683104
0.670416
0.652905
0.647539
0.652892
0.660018
0.666717
0.666725
0.660053
0.652895
0.647541
0.652907
0.670411
0.68311
0.643044
0.620397
0.609476
0.608435
0.614499
0.620797
0.63839
0.676718
0.67029
0.644091
0.631667
0.641366
0.654168
0.654182
0.641399
0.63168
0.644095
0.670291
0.676724
0.638394
0.620795
0.614496
0.608426
0.60863
0.615371
0.620474
0.627161
0.641486
0.681197
0.659302
0.624863
0.622305
0.641957
0.641976
0.622398
0.624883
0.65931
0.681196
0.641489
0.627164
0.620478
0.61538
0.608629
0.609622
0.617339
0.622266
0.627906
0.633904
0.653017
0.684544
0.634205
0.612232
0.631374
0.631396
0.612314
0.634226
0.684549
0.653013
0.633904
0.627906
0.622266
0.617344
0.609626
0.610481
0.618353
0.624799
0.631398
0.636206
0.645908
0.675332
0.656822
0.611829
0.622278
0.622299
0.611907
0.65685
0.67532
0.645905
0.636205
0.631396
0.624794
0.61835
0.610482
0.612256
0.621315
0.629713
0.640676
0.64428
0.649834
0.66927
0.677366
0.617986
0.618015
0.618034
0.618052
0.677387
0.669259
0.649832
0.64428
0.640673
0.629708
0.621316
0.612253
0.614068
0.626275
0.64161
0.657011
0.656316
0.657384
0.67212
0.679306
0.621841
0.617909
0.617921
0.62189
0.679318
0.672093
0.657381
0.656317
0.65701
0.641605
0.626286
0.614065
0.617329
0.638214
0.6717
0.676746
0.669347
0.66471
0.676727
0.677701
0.627098
0.62449
0.624497
0.627127
0.677706
0.676724
0.664712
0.669346
0.676748
0.671698
0.638272
0.617325
0.624399
0.661612
0.68391
0.683134
0.677592
0.675667
0.682846
0.671779
0.635796
0.635734
0.635739
0.635813
0.671769
0.682848
0.67567
0.6776
0.683135
0.683908
0.661597
0.624392
0.627656
0.659426
0.681802
0.685202
0.684607
0.68474
0.684725
0.664327
0.650153
0.651815
0.651811
0.650157
0.664315
0.684722
0.684741
0.684608
0.685202
0.681796
0.659413
0.62765
0.629925
0.64983
0.668206
0.682419
0.685571
0.684592
0.680953
0.673799
0.67081
0.670976
0.670974
0.670807
0.673794
0.680949
0.684592
0.685571
0.682414
0.668194
0.649826
0.629921
0.630443
0.641454
0.648304
0.662527
0.676806
0.683639
0.685567
0.685257
0.68425
0.684621
0.684621
0.684253
0.685257
0.685567
0.683637
0.6768
0.662518
0.648303
0.641458
0.630442
0.63004
0.638049
0.640481
0.644026
0.652508
0.660784
0.669447
0.675494
0.679105
0.680754
0.680752
0.679103
0.675491
0.669444
0.66078
0.652506
0.644031
0.640492
0.638058
0.630042
0.631321
0.637256
0.638284
0.638486
0.641376
0.644279
0.647658
0.650843
0.653997
0.655653
0.655651
0.653994
0.650843
0.647659
0.644284
0.641384
0.6385
0.638298
0.637266
0.63132
0.619674
0.622015
0.62234
0.622195
0.622993
0.623715
0.624379
0.625011
0.625653
0.626066
0.626065
0.625653
0.625012
0.624382
0.62372
0.623001
0.622203
0.622348
0.622021
0.619673
0.606447
0.606477
0.606475
0.606475
0.606487
0.606512
0.606523
0.606532
0.606545
0.606554
0.606554
0.606545
0.606533
0.606523
0.606512
0.606487
0.606475
0.606475
0.606477
0.606447
0.606109
0.606113
0.606115
0.606119
0.606124
0.606133
0.606136
0.60614
0.606143
0.606145
0.606145
0.606143
0.60614
0.606136
0.606133
0.606124
0.606119
0.606115
0.606113
0.606109
0.606072
0.606075
0.606076
0.606082
0.606085
0.606092
0.606095
0.606098
0.606099
0.606101
0.606101
0.606099
0.606098
0.606095
0.606092
0.606085
0.606082
0.606076
0.606075
0.606072
)
;

boundaryField
{
    outlet
    {
        type            zeroGradient;
    }
    inlet
    {
        type            zeroGradient;
    }
    coupledWall_top
    {
        type            zeroGradient;
    }
    region0_to_filmRegion_coupledWall
    {
        type            zeroGradient;
    }
    side1
    {
        type            zeroGradient;
    }
    side2
    {
        type            zeroGradient;
    }
}


// ************************************************************************* //
