/*--------------------------------*- C++ -*----------------------------------*\
  =========                 |
  \\      /  F ield         | OpenFOAM: The Open Source CFD Toolbox
   \\    /   O peration     | Website:  https://openfoam.org
    \\  /    A nd           | Version:  7
     \\/     M anipulation  |
\*---------------------------------------------------------------------------*/
FoamFile
{
    version     2.0;
    format      ascii;
    class       volScalarField;
    location    "1/filmRegion";
    object      muf;
}
// * * * * * * * * * * * * * * * * * * * * * * * * * * * * * * * * * * * * * //

dimensions      [1 -1 -1 0 0 0 0];

internalField   nonuniform List<scalar> 
400
(
0.000402183
0.000179603
0.000149935
0.000153014
0.000167588
0.000194877
0.000202585
0.000210985
0.000230345
0.000236264
0.000236229
0.000230231
0.000210951
0.00020258
0.000194881
0.000167591
0.000153016
0.000149934
0.000179594
0.000402075
0.000671459
0.000335769
0.000180471
0.000142445
0.000128234
0.000129986
0.000139808
0.000142622
0.000149371
0.000159049
0.000159049
0.000149403
0.000142621
0.00013981
0.000129988
0.000128234
0.000142443
0.000180461
0.000335772
0.000671458
0.000876942
0.000738496
0.00051399
0.00022984
0.000138587
0.00012322
0.000119955
0.000123211
0.00012834
0.000134416
0.000134424
0.000128368
0.000123213
0.000119956
0.000123221
0.000138582
0.000229785
0.000514365
0.000738325
0.000876904
0.000891393
0.000810213
0.000733681
0.000554651
0.000276537
0.000138433
0.00011806
0.000112176
0.000116654
0.000124054
0.000124064
0.00011667
0.000112181
0.000118062
0.000138434
0.000276498
0.000554621
0.000733704
0.000810246
0.000891531
0.000888668
0.000799157
0.000737431
0.000663497
0.000527567
0.000245314
0.000127774
0.000109413
0.000108437
0.000116952
0.000116962
0.000108472
0.00010942
0.000127779
0.000245323
0.000527545
0.000663462
0.00073738
0.000799046
0.000888679
0.000874884
0.000774768
0.000716879
0.000655712
0.000596041
0.000435858
0.00017434
0.000113279
0.000104864
0.000112051
0.00011206
0.000104891
0.000113288
0.000174376
0.000435887
0.000596037
0.000655706
0.000716876
0.000774715
0.000874832
0.000863131
0.000762496
0.000688764
0.000620338
0.000574474
0.00049079
0.00028563
0.000125906
0.000104729
0.000108427
0.000108435
0.000104755
0.000125927
0.00028571
0.000490813
0.000574484
0.000620357
0.00068881
0.000762529
0.000863111
0.00083934
0.000727712
0.000637175
0.000534542
0.000504081
0.00045986
0.000324699
0.000149352
0.000106856
0.000106867
0.000106874
0.00010688
0.000149393
0.000324768
0.000459876
0.00050408
0.000534572
0.000637226
0.000727696
0.00083938
0.000815732
0.000672871
0.00052651
0.000406962
0.000411898
0.00040433
0.000306373
0.0001536
0.000108263
0.000106829
0.000106833
0.000108282
0.000153631
0.000306544
0.000404347
0.000411891
0.000406968
0.000526548
0.000672748
0.000815772
0.000774899
0.000556227
0.000309069
0.00027635
0.000324202
0.000354417
0.000276475
0.000150028
0.000110292
0.000109269
0.000109271
0.000110303
0.000150039
0.000276498
0.000354404
0.000324211
0.00027634
0.00030908
0.000555712
0.000774947
0.00069313
0.000375126
0.000222223
0.000229573
0.000270718
0.000283446
0.000232092
0.000140335
0.000113993
0.000113965
0.000113967
0.000114001
0.000140323
0.000232073
0.000283423
0.000270665
0.000229561
0.000222239
0.000375229
0.000693208
0.000658316
0.000390075
0.000240656
0.000205826
0.000214487
0.000212804
0.000175836
0.000132067
0.000121493
0.000122521
0.000122519
0.000121495
0.000132055
0.000175811
0.000212782
0.000214481
0.000205827
0.000240707
0.000390167
0.000658374
0.000635038
0.000459891
0.000331573
0.000235694
0.000195501
0.000174719
0.000158035
0.000143198
0.00013908
0.00013929
0.000139287
0.000139076
0.000143189
0.000158023
0.00017472
0.000195519
0.000235734
0.000331652
0.000459925
0.000635072
0.000629831
0.000527845
0.000471737
0.000368956
0.000275954
0.000224901
0.000195811
0.000181813
0.000172206
0.000174954
0.000174954
0.000172222
0.000181812
0.000195813
0.000224921
0.000275994
0.000369017
0.000471745
0.000527811
0.000629841
0.000633875
0.000557714
0.000536234
0.000506181
0.00043964
0.000380752
0.000323556
0.000284575
0.000260402
0.000248624
0.000248642
0.000260422
0.000284594
0.000323581
0.000380784
0.00043965
0.000506141
0.00053614
0.000557626
0.000633859
0.000621096
0.000564872
0.000555598
0.000553801
0.000528512
0.000504087
0.000476813
0.000452157
0.000428649
0.000416644
0.000416658
0.000428674
0.000452155
0.000476809
0.000504049
0.000528446
0.000553671
0.000555476
0.000564777
0.000621104
0.000746791
0.000719716
0.000716033
0.000717682
0.000708697
0.000700661
0.000693346
0.000686461
0.000679527
0.000675098
0.000675108
0.000679518
0.000686445
0.000693312
0.000700604
0.000708608
0.000717588
0.000715944
0.000719653
0.000746799
0.000919768
0.000919334
0.000919362
0.000919363
0.000919186
0.00091883
0.000918668
0.000918531
0.000918348
0.000918219
0.000918219
0.000918348
0.00091853
0.000918666
0.000918827
0.000919182
0.000919359
0.000919359
0.000919331
0.000919767
0.00092469
0.000924629
0.000924597
0.000924535
0.000924464
0.00092434
0.000924284
0.000924237
0.000924194
0.000924165
0.000924165
0.000924194
0.000924237
0.000924284
0.000924339
0.000924464
0.000924535
0.000924596
0.000924629
0.00092469
0.000925218
0.000925173
0.000925168
0.000925075
0.000925027
0.000924932
0.000924888
0.00092485
0.000924823
0.000924804
0.000924804
0.000924823
0.000924849
0.000924888
0.000924931
0.000925027
0.000925074
0.000925167
0.000925172
0.000925218
)
;

boundaryField
{
    outlet
    {
        type            zeroGradient;
    }
    inlet
    {
        type            zeroGradient;
    }
    coupledWall_top
    {
        type            zeroGradient;
    }
    region0_to_filmRegion_coupledWall
    {
        type            zeroGradient;
    }
    side1
    {
        type            zeroGradient;
    }
    side2
    {
        type            zeroGradient;
    }
}


// ************************************************************************* //
