/*--------------------------------*- C++ -*----------------------------------*\
  =========                 |
  \\      /  F ield         | OpenFOAM: The Open Source CFD Toolbox
   \\    /   O peration     | Website:  https://openfoam.org
    \\  /    A nd           | Version:  7
     \\/     M anipulation  |
\*---------------------------------------------------------------------------*/
FoamFile
{
    version     2.0;
    format      ascii;
    class       surfaceScalarField;
    location    "1/filmRegion";
    object      phi;
}
// * * * * * * * * * * * * * * * * * * * * * * * * * * * * * * * * * * * * * //

dimensions      [1 1 -1 0 0 0 0];

internalField   nonuniform List<scalar> 
760
(
-4.82353e-14
2.04359e-13
-2.52621e-14
8.58352e-15
-8.65162e-16
7.48463e-15
1.07594e-14
2.11922e-15
1.20992e-14
-3.84601e-15
7.36113e-15
-6.98009e-15
7.62624e-15
-7.04301e-15
2.60252e-14
-7.05652e-15
2.89465e-15
-7.11335e-15
-1.30715e-17
-6.57872e-15
-2.90822e-15
-6.57698e-15
-2.59642e-14
-7.10469e-15
-7.60361e-15
-7.0546e-15
-7.3558e-15
-7.04244e-15
-1.20981e-14
-6.97997e-15
-1.07602e-14
-3.84654e-15
8.62582e-16
2.11772e-15
2.52571e-14
7.48649e-15
4.82359e-14
8.58371e-15
2.04502e-13
-1.86962e-13
1.33806e-13
-3.86629e-14
4.8375e-14
-3.14234e-14
1.08815e-14
-1.52114e-14
9.40303e-15
1.38077e-16
3.96236e-15
7.40816e-15
-2.63785e-15
6.13623e-15
-5.71412e-15
6.17477e-15
-6.51379e-15
5.88684e-15
-6.47072e-15
8.17581e-18
-5.93375e-15
-5.87982e-15
-5.93157e-15
-6.18197e-15
-6.46619e-15
-6.14207e-15
-6.51213e-15
-7.40754e-15
-5.71388e-15
-1.39817e-16
-2.63802e-15
1.52083e-14
3.96124e-15
3.14221e-14
9.40166e-15
3.86652e-14
1.08841e-14
1.87054e-13
4.84037e-14
1.33878e-13
-1.77145e-13
-1.01277e-14
-2.16196e-14
5.70696e-14
-4.2783e-14
6.48705e-15
-4.60195e-14
1.0543e-14
-2.53182e-14
1.23698e-14
-6.10366e-15
6.51991e-15
3.13627e-15
-9.30223e-17
6.87466e-15
-3.18238e-15
5.76485e-15
-3.74305e-15
1.23031e-17
-3.09212e-15
-5.75458e-15
-3.09093e-15
-6.88563e-15
-3.74173e-15
-3.14551e-15
-3.18114e-15
6.1016e-15
-9.26604e-17
2.5311e-14
6.51978e-15
4.60238e-14
1.23694e-14
4.27996e-14
1.0545e-14
2.16133e-14
6.4852e-15
1.7478e-13
5.63243e-14
-1.01146e-14
-8.24949e-14
-1.07299e-13
-5.655e-15
-5.69758e-15
-1.60521e-14
9.50324e-16
-3.94263e-14
4.2756e-15
-5.263e-14
9.46698e-15
-3.3913e-14
1.20294e-14
-9.98311e-15
5.71081e-15
4.36027e-15
2.11042e-16
7.88359e-15
-1.97249e-15
1.05943e-17
-1.44923e-15
-7.87402e-15
-1.44869e-15
-4.36715e-15
-1.96953e-15
9.97458e-15
2.1192e-16
3.39073e-14
5.71224e-15
5.26261e-14
1.20296e-14
3.94284e-14
9.46784e-15
1.60538e-14
4.2763e-15
5.67543e-15
9.5105e-16
8.45433e-14
-5.73653e-15
-1.07399e-13
-1.04534e-13
-1.11332e-13
-3.48805e-15
-8.93381e-15
-5.01345e-15
-1.1912e-16
-1.66139e-14
4.50503e-16
-4.3704e-14
3.12283e-15
-6.02504e-14
9.30902e-15
-3.38313e-14
1.11715e-14
-4.4257e-15
3.99047e-15
7.30859e-15
3.34101e-16
2.10792e-17
-2.24471e-16
-7.28826e-15
-2.24436e-16
4.41021e-15
3.34347e-16
3.38137e-14
3.99145e-15
6.02506e-14
1.11743e-14
4.37004e-14
9.30917e-15
1.66126e-14
3.12367e-15
5.01273e-15
4.50848e-16
3.48815e-15
-1.18893e-16
1.04083e-13
-8.87807e-15
-1.11347e-13
-6.51705e-14
-1.13777e-13
-2.93508e-15
-7.53375e-15
-3.04425e-15
-2.75406e-16
-5.88464e-15
-3.89078e-16
-2.43349e-14
3.20896e-16
-1.26185e-13
3.50489e-15
-5.40966e-14
2.35589e-14
-2.07779e-14
7.25882e-15
3.06207e-15
2.81494e-15
1.84126e-17
1.22892e-15
-3.04408e-15
1.22842e-15
2.07691e-14
2.81308e-15
5.40855e-14
7.26067e-15
1.26258e-13
2.35759e-14
2.4328e-14
3.50496e-15
5.88374e-15
3.21151e-16
3.04398e-15
-3.88724e-16
2.93412e-15
-2.74915e-16
6.49562e-14
-7.5389e-15
-1.13706e-13
-5.5928e-14
-1.28514e-13
-3.06826e-15
-2.85558e-15
-2.77966e-15
-7.99618e-16
-3.24352e-15
-1.27721e-15
-1.06513e-14
-6.21789e-16
-3.87567e-14
7.97556e-16
-6.36034e-14
5.32422e-15
-3.81178e-14
8.24628e-15
-5.27198e-15
4.66479e-15
1.70057e-17
3.15488e-15
5.29198e-15
3.15405e-15
3.8112e-14
4.66276e-15
6.35937e-14
8.24799e-15
3.87447e-14
5.32439e-15
1.06464e-14
7.97696e-16
3.24369e-15
-6.21967e-16
2.78034e-15
-1.27713e-15
3.06775e-15
-7.99522e-16
5.60242e-14
-3.10468e-15
-1.28463e-13
-1.69757e-14
-1.56299e-13
-4.22876e-15
-3.58137e-14
-3.76325e-15
-2.66325e-15
-2.39851e-15
-5.89979e-15
-5.66574e-15
-1.26857e-15
-2.67456e-14
4.60471e-16
-6.5909e-14
2.23765e-15
-4.78878e-14
6.97657e-15
-1.52632e-14
6.00825e-15
1.52742e-17
5.67539e-15
1.52837e-14
5.67396e-15
4.78843e-14
6.00493e-15
6.59089e-14
6.97616e-15
2.67321e-14
2.23818e-15
5.66206e-15
4.60351e-16
2.39949e-15
-1.26896e-15
3.76345e-15
-5.89227e-15
4.22809e-15
-2.66345e-15
1.83507e-14
-3.61406e-14
-1.56293e-13
-1.60618e-13
-2.27534e-13
-7.60394e-15
-1.11337e-13
-1.3286e-14
-2.53809e-13
-1.28121e-15
-1.36672e-13
-2.59586e-15
-1.47968e-15
-2.26109e-14
4.46995e-16
-7.82784e-14
1.38852e-15
-5.1691e-14
5.74885e-15
-1.94774e-14
7.89802e-15
1.2597e-17
9.25023e-15
1.94927e-14
9.24785e-15
5.16952e-14
7.89396e-15
7.83063e-14
5.74444e-15
2.2595e-14
1.38578e-15
2.58618e-15
4.46366e-16
1.28164e-15
-1.48087e-15
1.32652e-14
-1.36704e-13
7.60232e-15
-2.54032e-13
1.61381e-13
-1.13147e-13
-2.27509e-13
-6.02722e-13
-3.08722e-13
-8.29873e-13
-6.13009e-13
-3.97429e-13
-6.44516e-13
1.57419e-13
-2.58303e-13
2.07485e-15
-7.10773e-14
-2.78606e-13
-3.88643e-14
-1.27091e-13
-4.87335e-15
-6.87445e-14
7.10348e-15
-2.70952e-14
1.36795e-14
1.27865e-17
1.82593e-14
2.71032e-14
1.82528e-14
6.87324e-14
1.36731e-14
1.27083e-13
7.09339e-15
2.78624e-13
-4.93064e-15
-2.0758e-15
-3.89256e-14
-1.57409e-13
-7.14066e-14
3.97133e-13
-2.58413e-13
8.33135e-13
-6.45399e-13
6.1253e-13
-6.14023e-13
-3.08664e-13
-5.68705e-12
-3.10163e-13
-4.79958e-12
-4.21237e-13
-8.4639e-13
1.25936e-13
7.03045e-13
-1.03065e-13
6.25286e-14
-2.00274e-13
-3.71626e-13
-1.62395e-13
-2.38075e-13
-5.78225e-14
-1.24592e-13
3.39675e-14
-4.17253e-14
5.90469e-14
2.29197e-17
7.77458e-14
4.17172e-14
7.77047e-14
1.24529e-13
5.90107e-14
2.38014e-13
3.39462e-14
3.71756e-13
-5.78923e-14
-6.31137e-14
-1.62561e-13
-7.03182e-13
-2.00464e-13
8.48865e-13
-1.02983e-13
4.80716e-12
1.26094e-13
5.6892e-12
-4.20493e-13
-3.10155e-13
-5.99185e-12
-2.6272e-13
-9.39622e-12
2.18801e-13
-4.29356e-12
1.3767e-12
-5.34073e-13
8.49426e-13
-4.63288e-13
3.22797e-13
-1.16614e-12
1.30799e-13
-9.28434e-13
2.24044e-13
-4.37327e-13
4.08873e-13
-8.47749e-14
4.63143e-13
2.84137e-17
5.07563e-13
8.47163e-14
5.0748e-13
4.37011e-13
4.63058e-13
9.28123e-13
4.08872e-13
1.16664e-12
2.24196e-13
4.6427e-13
1.31036e-13
5.3602e-13
3.23279e-13
4.29917e-12
8.50311e-13
9.40033e-12
1.37702e-12
5.98937e-12
2.18255e-13
-2.62777e-13
-3.19616e-12
-2.20736e-13
-6.36996e-12
1.83322e-13
-8.54823e-12
1.13056e-12
-7.40286e-12
1.87958e-12
-4.8726e-12
1.76324e-12
-3.42104e-12
1.66974e-12
-2.35033e-12
1.77112e-12
-1.08809e-12
2.17579e-12
-2.5595e-13
2.01588e-12
-5.78282e-17
2.04399e-12
2.55879e-13
2.04459e-12
1.08801e-12
2.01698e-12
2.35094e-12
2.17658e-12
3.42365e-12
1.77213e-12
4.87713e-12
1.67069e-12
7.40807e-12
1.76397e-12
8.55035e-12
1.88001e-12
6.36736e-12
1.12966e-12
3.19502e-12
1.82849e-13
-2.20819e-13
-1.3134e-12
-1.97055e-13
-2.22286e-12
-8.78273e-15
-4.12879e-12
3.51924e-13
-6.60319e-12
1.10289e-12
-7.71404e-12
1.95763e-12
-6.49007e-12
2.81316e-12
-4.68964e-12
3.29188e-12
-2.22902e-12
3.75983e-12
-5.67627e-13
3.17354e-12
1.33679e-15
3.80013e-12
5.69575e-13
3.80119e-12
2.2305e-12
3.17725e-12
4.69047e-12
3.76114e-12
6.49303e-12
3.29297e-12
7.71594e-12
2.81343e-12
6.60245e-12
1.95715e-12
4.12679e-12
1.10208e-12
2.22204e-12
3.51346e-13
1.31362e-12
-9.04528e-15
-1.97103e-13
-7.71568e-13
-8.88242e-14
-7.96516e-13
3.77546e-14
-1.02984e-12
1.29012e-13
-1.89908e-12
3.93218e-13
-2.74264e-12
8.43026e-13
-3.37461e-12
1.33628e-12
-3.54896e-12
1.89176e-12
-2.8025e-12
2.39945e-12
-1.40863e-12
2.68098e-12
1.03004e-15
2.36919e-12
1.41002e-12
2.37036e-12
2.8024e-12
2.68088e-12
3.54871e-12
2.39936e-12
3.37422e-12
1.89158e-12
2.74172e-12
1.33588e-12
1.89798e-12
8.42636e-13
1.02913e-12
3.92886e-13
7.96842e-13
1.28876e-13
7.72397e-13
3.77138e-14
-8.88125e-14
-6.43885e-13
-1.95325e-12
-4.67914e-13
-9.60785e-13
-2.92834e-13
-8.34546e-13
-5.42336e-13
-6.6997e-13
-7.42863e-13
2.22014e-14
-8.39696e-13
2.48533e-13
-8.92095e-13
5.44516e-13
-8.12526e-13
8.3498e-13
-4.92017e-13
1.10583e-12
3.25457e-16
1.26226e-12
4.92147e-13
1.26205e-12
8.12071e-13
1.10551e-12
8.91577e-13
8.34856e-13
8.39088e-13
5.44363e-13
7.42078e-13
2.48487e-13
5.41661e-13
2.22469e-14
2.9278e-13
-6.68733e-13
4.68776e-13
-8.33221e-13
6.45016e-13
-9.59741e-13
-1.95342e-12
-2.30845e-12
-2.37558e-07
-2.11629e-12
-2.32357e-07
-1.37287e-12
-2.32747e-07
-2.05419e-12
-2.32703e-07
-2.30379e-12
-2.32722e-07
-2.12586e-12
-2.3256e-07
-1.92507e-12
-2.32432e-07
-1.60458e-12
-2.32251e-07
-9.54738e-13
-2.32129e-07
-2.05653e-16
-2.32055e-07
9.53172e-13
-2.32055e-07
1.60185e-12
-2.32129e-07
1.9217e-12
-2.3225e-07
2.12128e-12
-2.32432e-07
2.29958e-12
-2.32559e-07
2.05225e-12
-2.32721e-07
1.37319e-12
-2.32701e-07
2.12009e-12
-2.32746e-07
2.31413e-12
-2.32355e-07
-2.37558e-07
-7.09507e-09
-4.25455e-06
-5.56033e-09
-4.18255e-06
-4.20126e-09
-4.18733e-06
-3.60126e-09
-4.18844e-06
-3.00595e-09
-4.19176e-06
-2.41121e-09
-4.19245e-06
-1.83893e-09
-4.19342e-06
-1.25721e-09
-4.19344e-06
-6.43083e-10
-4.19364e-06
-8.84271e-13
-4.19368e-06
6.41132e-10
-4.19368e-06
1.25498e-09
-4.19364e-06
1.8363e-09
-4.19344e-06
2.40863e-09
-4.19341e-06
3.00378e-09
-4.19244e-06
3.60046e-09
-4.19176e-06
4.20107e-09
-4.18844e-06
5.55977e-09
-4.18732e-06
7.09455e-09
-4.18254e-06
-4.25456e-06
-8.32666e-08
-5.34551e-06
-7.27007e-08
-5.30494e-06
-6.32602e-08
-5.31022e-06
-5.25833e-08
-5.31392e-06
-4.36457e-08
-5.31769e-06
-3.40707e-08
-5.32024e-06
-2.54006e-08
-5.32188e-06
-1.68757e-08
-5.32282e-06
-8.4904e-09
-5.32362e-06
-1.46806e-11
-5.32408e-06
8.46063e-09
-5.32408e-06
1.6846e-08
-5.32362e-06
2.53722e-08
-5.32282e-06
3.40474e-08
-5.32189e-06
4.36313e-08
-5.32025e-06
5.25795e-08
-5.3177e-06
6.32605e-08
-5.31393e-06
7.26989e-08
-5.31023e-06
8.32601e-08
-5.30494e-06
-5.34553e-06
-8.19639e-08
-6.51254e-08
-5.43464e-08
-4.48882e-08
-3.76917e-08
-2.95067e-08
-2.2018e-08
-1.46165e-08
-7.33426e-09
-1.03564e-11
7.31182e-09
1.45914e-08
2.19937e-08
2.94856e-08
3.76759e-08
4.48775e-08
5.43384e-08
6.51191e-08
8.1964e-08
)
;

boundaryField
{
    outlet
    {
        type            calculated;
        value           nonuniform List<scalar> 
20
(
-2.08466e-13
-6.18109e-15
-2.9617e-15
1.21205e-15
4.89253e-15
7.13284e-15
9.2082e-15
2.87468e-14
5.79598e-15
4.98041e-15
4.97884e-15
5.78687e-15
2.87203e-14
9.20635e-15
7.13261e-15
4.89264e-15
1.2125e-15
-2.96107e-15
-6.18188e-15
-2.08669e-13
)
;
    }
    inlet
    {
        type            calculated;
        value           nonuniform List<scalar> 
20
(
-4.33051e-06
-4.33732e-06
-4.3384e-06
-4.33772e-06
-4.33763e-06
-4.33783e-06
-4.33779e-06
-4.33754e-06
-4.33725e-06
-4.33715e-06
-4.33715e-06
-4.33725e-06
-4.33754e-06
-4.3378e-06
-4.33784e-06
-4.33765e-06
-4.33772e-06
-4.33837e-06
-4.33727e-06
-4.33048e-06
)
;
    }
    coupledWall_top
    {
        type            calculated;
        value           uniform 0;
    }
    region0_to_filmRegion_coupledWall
    {
        type            calculated;
        value           uniform 0;
    }
    side1
    {
        type            calculated;
        value           uniform 0;
    }
    side2
    {
        type            calculated;
        value           uniform 0;
    }
}


// ************************************************************************* //
