/*--------------------------------*- C++ -*----------------------------------*\
  =========                 |
  \\      /  F ield         | OpenFOAM: The Open Source CFD Toolbox
   \\    /   O peration     | Website:  https://openfoam.org
    \\  /    A nd           | Version:  7
     \\/     M anipulation  |
\*---------------------------------------------------------------------------*/
FoamFile
{
    version     2.0;
    format      ascii;
    class       volScalarField;
    location    "1/filmRegion";
    object      rhof;
}
// * * * * * * * * * * * * * * * * * * * * * * * * * * * * * * * * * * * * * //

dimensions      [1 -3 0 0 0 0 0];

internalField   nonuniform List<scalar> 
400
(
982.164
956.291
945.161
946.614
952.455
960.28
962.006
963.711
967.085
967.99
967.985
967.067
963.705
962.005
960.281
952.456
946.615
945.16
956.288
982.158
990.882
978.162
956.542
941.212
931.578
932.955
939.66
941.312
944.884
949.222
949.222
944.9
941.312
939.662
932.957
931.578
941.21
956.539
978.162
990.882
994.385
992.194
986.735
967.006
938.91
927.269
924.136
927.261
931.663
936.177
936.183
931.686
927.263
924.137
927.271
938.907
966.997
986.748
992.191
994.385
994.583
993.403
992.106
987.993
973.026
938.814
922.183
915.425
920.668
928.027
928.035
920.686
915.432
922.186
938.814
973.022
987.993
992.107
993.403
994.584
994.546
993.228
992.175
990.712
987.174
969.279
931.206
911.851
910.522
920.995
921.005
910.57
911.861
931.21
969.28
987.173
990.711
992.174
993.226
994.546
994.357
992.828
991.793
990.542
989.124
983.759
954.7
916.778
905.347
915.27
915.281
905.389
916.789
954.711
983.76
989.124
990.542
991.792
992.827
994.356
994.192
992.619
991.24
989.728
988.552
985.938
973.954
929.649
905.141
910.508
910.519
905.181
929.666
973.962
985.939
988.552
989.729
991.241
992.619
994.191
993.847
991.996
990.125
987.392
986.402
984.767
977.344
944.875
908.294
908.309
908.318
908.328
944.895
977.349
984.768
986.402
987.392
990.126
991.996
993.847
993.489
990.911
987.14
982.405
982.648
982.273
975.862
946.881
910.282
908.255
908.26
910.307
946.895
975.876
982.273
982.648
982.405
987.141
990.909
993.489
992.83
988.039
976.091
973.006
977.306
979.428
973.019
945.206
913.017
911.657
911.66
913.033
945.211
973.022
979.427
977.306
973.005
976.092
988.024
992.831
991.328
980.694
965.753
966.963
972.397
973.737
967.358
939.978
917.632
917.598
917.601
917.641
939.97
967.355
973.735
972.391
966.961
965.756
980.7
991.33
990.599
981.529
968.629
962.684
964.375
964.059
955.165
934.513
925.646
926.622
926.62
925.649
934.505
955.158
964.055
964.374
962.684
968.636
981.534
990.6
990.076
984.769
977.858
967.905
960.426
954.819
948.804
941.638
939.215
939.344
939.343
939.213
941.633
948.799
954.819
960.43
967.911
977.864
984.77
990.076
989.954
987.182
985.233
980.331
972.964
966.205
960.498
956.923
954.016
954.892
954.892
954.022
956.923
960.499
966.208
972.968
980.334
985.233
987.181
989.954
990.049
988.082
987.444
986.474
983.924
981.015
977.256
973.85
971.21
969.725
969.727
971.212
973.852
977.258
981.017
983.925
986.473
987.441
988.079
990.048
989.747
988.285
988.021
987.969
987.203
986.403
985.425
984.454
983.436
982.877
982.878
983.438
984.454
985.425
986.401
987.201
987.965
988.017
988.283
989.747
992.343
991.846
991.776
991.808
991.635
991.478
991.333
991.193
991.051
990.958
990.958
991.05
991.193
991.332
991.477
991.634
991.806
991.775
991.845
992.344
994.956
994.951
994.951
994.951
994.949
994.944
994.942
994.94
994.938
994.936
994.936
994.938
994.94
994.942
994.944
994.949
994.951
994.951
994.951
994.956
995.019
995.019
995.018
995.017
995.016
995.015
995.014
995.014
995.013
995.013
995.013
995.013
995.014
995.014
995.015
995.016
995.017
995.018
995.019
995.019
995.026
995.025
995.025
995.024
995.024
995.022
995.022
995.021
995.021
995.021
995.021
995.021
995.021
995.022
995.022
995.024
995.024
995.025
995.025
995.026
)
;

boundaryField
{
    outlet
    {
        type            zeroGradient;
    }
    inlet
    {
        type            zeroGradient;
    }
    coupledWall_top
    {
        type            zeroGradient;
    }
    region0_to_filmRegion_coupledWall
    {
        type            zeroGradient;
    }
    side1
    {
        type            zeroGradient;
    }
    side2
    {
        type            zeroGradient;
    }
}


// ************************************************************************* //
