/*--------------------------------*- C++ -*----------------------------------*\
  =========                 |
  \\      /  F ield         | OpenFOAM: The Open Source CFD Toolbox
   \\    /   O peration     | Website:  https://openfoam.org
    \\  /    A nd           | Version:  7
     \\/     M anipulation  |
\*---------------------------------------------------------------------------*/
FoamFile
{
    version     2.0;
    format      ascii;
    class       volScalarField;
    location    "1/filmRegion";
    object      sigmaf;
}
// * * * * * * * * * * * * * * * * * * * * * * * * * * * * * * * * * * * * * //

dimensions      [1 0 -2 0 0 0 0];

internalField   nonuniform List<scalar> 
400
(
0.0637309
0.0483604
0.0425273
0.0432661
0.0463037
0.0505519
0.0515174
0.0524823
0.054424
0.0549524
0.0549493
0.0544136
0.0524786
0.0515169
0.0505524
0.0463042
0.0432665
0.042527
0.0483589
0.0637273
0.0697475
0.0611453
0.0484964
0.040555
0.0359581
0.0365965
0.039794
0.0406046
0.0423876
0.0446086
0.0446087
0.0423957
0.0406045
0.0397948
0.0365974
0.0359584
0.0405544
0.0484948
0.0611455
0.0697475
0.0723509
0.0707086
0.0668125
0.0543776
0.039429
0.0340029
0.0326207
0.0339994
0.0359975
0.0381145
0.0381172
0.0360079
0.0340002
0.0326212
0.0340035
0.0394274
0.0543726
0.066821
0.0707063
0.0723505
0.0725014
0.0716084
0.0706438
0.0676879
0.0579569
0.0393823
0.0317768
0.0289593
0.0311308
0.0343421
0.0343458
0.0311386
0.0289622
0.0317778
0.0393824
0.0579545
0.0676873
0.0706441
0.0716088
0.0725028
0.0724733
0.0714771
0.0706943
0.0696242
0.0671161
0.055711
0.0357868
0.027535
0.0270175
0.0312696
0.031274
0.027036
0.027539
0.0357889
0.0557118
0.0671156
0.0696237
0.0706936
0.0714758
0.0724734
0.0723291
0.0711784
0.0704128
0.0695016
0.0684854
0.0647895
0.0475011
0.0295102
0.0250622
0.0288963
0.0289011
0.0250776
0.0295148
0.0475072
0.0647904
0.0684853
0.0695015
0.0704127
0.0711777
0.0723286
0.0722038
0.071023
0.0700084
0.0689164
0.0680805
0.0662642
0.0585236
0.0350749
0.0249865
0.027012
0.0270163
0.0250011
0.0350829
0.0585284
0.0662648
0.0680807
0.0689167
0.0700091
0.0710234
0.0722035
0.0719426
0.0705626
0.0692008
0.0672675
0.066583
0.0654678
0.0606282
0.042383
0.0261636
0.0261692
0.0261729
0.0261764
0.0423932
0.0606315
0.0654682
0.066583
0.0672682
0.0692017
0.0705623
0.071943
0.071673
0.0697692
0.0670929
0.0638897
0.0640506
0.0638026
0.0597008
0.0434023
0.0269245
0.0261487
0.0261509
0.0269342
0.0434094
0.0597099
0.0638031
0.0640503
0.0638899
0.0670937
0.0697673
0.0716735
0.07118
0.0677199
0.0598433
0.0579449
0.0606043
0.0619532
0.0579529
0.0425501
0.0279949
0.027459
0.0274603
0.028001
0.0425527
0.0579544
0.0619526
0.0606048
0.0579443
0.0598439
0.0677094
0.0711806
0.0700727
0.06277
0.0536522
0.054353
0.0575758
0.0583906
0.0545828
0.0399492
0.0298614
0.0298476
0.0298488
0.0298652
0.0399456
0.0545811
0.0583891
0.0575723
0.0543519
0.0536538
0.0627738
0.0700739
0.0695428
0.0633144
0.0553277
0.0518998
0.0528608
0.0526806
0.0477516
0.0373262
0.0332827
0.0337147
0.0337137
0.0332838
0.0373222
0.0477475
0.0526782
0.0528601
0.0518999
0.0553319
0.0633176
0.0695437
0.0691653
0.0654686
0.0609528
0.0549027
0.0506331
0.0475651
0.0443921
0.0407655
0.0395772
0.03964
0.0396393
0.0395761
0.040763
0.0443895
0.0475653
0.0506356
0.0549062
0.0609565
0.0654695
0.0691659
0.0690781
0.0671222
0.0657832
0.0625346
0.0579194
0.053913
0.0506734
0.0487038
0.0471349
0.0476046
0.0476045
0.0471377
0.0487036
0.0506737
0.0539149
0.057922
0.062537
0.0657834
0.0671214
0.0690783
0.069146
0.0677499
0.0673038
0.0666322
0.0649003
0.062979
0.0605731
0.0584596
0.0568607
0.0559749
0.0559762
0.0568621
0.0584608
0.0605743
0.0629802
0.0649006
0.0666313
0.0673018
0.0677482
0.0691457
0.0689294
0.0678929
0.0677071
0.0676706
0.0671368
0.0665832
0.0659142
0.0652563
0.0645742
0.0642023
0.0642028
0.0645749
0.0652563
0.0659142
0.0665823
0.0671354
0.0676679
0.0677047
0.067891
0.0689296
0.0708189
0.0704523
0.0704009
0.070424
0.0702974
0.0701823
0.0700759
0.0699742
0.0698703
0.0698032
0.0698033
0.0698702
0.069974
0.0700754
0.0701815
0.0702962
0.0704227
0.0703997
0.0704514
0.070819
0.0727874
0.0727831
0.0727834
0.0727834
0.0727816
0.0727781
0.0727765
0.0727752
0.0727734
0.0727721
0.0727721
0.0727734
0.0727752
0.0727765
0.0727781
0.0727816
0.0727833
0.0727833
0.0727831
0.0727874
0.0728358
0.0728352
0.0728348
0.0728342
0.0728335
0.0728323
0.0728318
0.0728313
0.0728309
0.0728306
0.0728306
0.0728309
0.0728313
0.0728318
0.0728323
0.0728335
0.0728342
0.0728348
0.0728352
0.0728358
0.0728409
0.0728405
0.0728404
0.0728395
0.0728391
0.0728381
0.0728377
0.0728373
0.0728371
0.0728369
0.0728369
0.0728371
0.0728373
0.0728377
0.0728381
0.0728391
0.0728395
0.0728404
0.0728405
0.0728409
)
;

boundaryField
{
    outlet
    {
        type            zeroGradient;
    }
    inlet
    {
        type            zeroGradient;
    }
    coupledWall_top
    {
        type            zeroGradient;
    }
    region0_to_filmRegion_coupledWall
    {
        type            zeroGradient;
    }
    side1
    {
        type            zeroGradient;
    }
    side2
    {
        type            zeroGradient;
    }
}


// ************************************************************************* //
