/*--------------------------------*- C++ -*----------------------------------*\
  =========                 |
  \\      /  F ield         | OpenFOAM: The Open Source CFD Toolbox
   \\    /   O peration     | Website:  https://openfoam.org
    \\  /    A nd           | Version:  7
     \\/     M anipulation  |
\*---------------------------------------------------------------------------*/
FoamFile
{
    version     2.0;
    format      ascii;
    class       volScalarField;
    location    "1/filmRegion";
    object      Tf;
}
// * * * * * * * * * * * * * * * * * * * * * * * * * * * * * * * * * * * * * //

dimensions      [0 0 0 1 0 0 0];

internalField   nonuniform List<scalar> 
400
(
343.312
422.448
451.526
446.515
432.042
411.233
407.564
402.517
393.277
390.73
390.746
393.328
402.536
407.567
411.231
432.039
446.513
451.527
422.456
343.331
314.562
361.247
427.235
462.374
480.887
477.22
462.354
460.486
452.188
441.78
441.78
452.154
460.487
462.351
477.216
480.885
462.376
427.242
361.245
314.562
300.593
309.484
331.847
400.212
467.86
490.309
496.319
490.112
481.705
472.456
472.445
481.666
490.11
496.317
490.306
467.867
400.24
331.857
309.497
300.595
299.718
304.213
309.379
326.282
383.166
469.347
500.447
511.887
502.995
489.608
489.593
502.964
511.876
500.442
469.346
383.182
326.286
309.377
304.211
299.711
299.852
304.815
308.751
314.374
328.832
394.198
484.306
518.442
520.409
503.429
503.411
520.346
518.427
484.298
394.197
328.835
314.377
308.755
304.822
299.852
300.561
306.29
310.112
314.667
319.997
341.256
434.612
511.421
529.2
513.336
513.314
529.134
511.402
434.585
341.252
319.997
314.668
310.112
306.293
300.563
301.154
307.023
312.046
317.382
321.452
331.1
375.003
488.628
530.01
521.681
521.663
529.951
488.596
374.977
331.097
321.451
317.38
312.043
307.021
301.155
302.306
309.171
315.372
324.434
328.616
334.001
359.769
453.318
524.904
525.255
525.238
524.848
453.267
359.751
333.999
328.616
324.432
315.383
309.171
302.304
303.446
312.155
323.628
340.047
340.185
342.884
362.82
445.541
521.535
526.109
526.097
521.493
445.505
362.806
342.882
340.185
340.047
323.624
312.162
303.444
305.603
320.469
356.734
369.043
358.266
351.862
372.13
448.96
517.593
521.494
521.486
517.565
448.946
372.121
351.864
358.27
369.046
356.733
320.519
305.6
310.775
345.895
392.375
390.047
373.58
368.227
386.605
458.819
510.453
512.064
512.057
510.435
458.832
386.611
368.233
373.595
390.051
392.37
345.88
310.77
313.671
346.77
389.455
402.577
394.852
394.187
418.263
474.69
497.805
497.016
497.016
497.796
474.715
418.285
394.201
394.857
402.578
389.436
346.755
313.668
316.412
337.548
364.8
395.104
413.06
425.443
442.838
465.26
472.754
472.599
472.602
472.757
465.273
442.856
425.447
413.051
395.088
364.78
337.543
316.409
316.689
327.997
337.159
358.188
383.934
404.891
420.779
430.685
438.453
435.897
435.898
438.44
430.687
420.781
404.884
383.922
358.175
337.155
328
316.688
316.483
324.403
327.294
332.311
344.102
357.169
372.32
384.11
392.063
396.931
396.922
392.056
384.105
372.315
357.163
344.099
332.314
327.304
324.412
316.485
318.107
323.911
324.955
325.509
328.954
332.702
337.302
341.931
346.645
349.174
349.172
346.64
341.93
337.301
332.706
328.96
325.523
324.968
323.921
318.107
308.009
310.067
310.351
310.282
310.984
311.592
312.21
312.811
313.426
313.808
313.807
313.427
312.812
312.212
311.596
310.99
310.289
310.357
310.071
308.008
298.322
298.353
298.354
298.354
298.367
298.386
298.396
298.403
298.415
298.422
298.422
298.415
298.404
298.396
298.386
298.367
298.355
298.354
298.353
298.322
298.066
298.071
298.075
298.079
298.085
298.092
298.096
298.099
298.102
298.103
298.103
298.102
298.099
298.096
298.092
298.085
298.079
298.075
298.072
298.066
298.042
298.046
298.047
298.054
298.057
298.064
298.067
298.07
298.072
298.073
298.073
298.072
298.07
298.067
298.064
298.057
298.054
298.047
298.046
298.042
)
;

boundaryField
{
    outlet
    {
        type            zeroGradient;
    }
    inlet
    {
        type            fixedValue;
        value           nonuniform List<scalar> 
20
(
298
298
298
298
298
298
298
298
298
298
298
298
298
298
298
298
298
298
298
298
)
;
    }
    coupledWall_top
    {
        type            zeroGradient;
    }
    region0_to_filmRegion_coupledWall
    {
        type            mappedField;
        sampleMode      nearestPatchFace;
        sampleRegion    pyrolysisRegion;
        samplePatch     region0_to_pyrolysisRegion_coupledWall;
        field           T;
        setAverage      0;
        average         0;
        interpolationScheme cell;
        value           nonuniform List<scalar> 
400
(
307.663
341.014
358.792
359.899
354.327
344.934
338.322
334.105
328.001
324.465
324.467
328.008
334.108
338.324
344.933
354.326
359.898
358.792
341.014
307.664
301.776
311.5
327.772
349.805
372.762
382.189
379.362
372.758
365.376
357.339
357.334
365.33
372.755
379.359
382.187
372.762
349.806
327.773
311.499
301.776
300.119
304.287
308.959
322.682
350.158
381.014
399.124
398.86
390.479
380.718
380.715
390.453
398.857
399.123
381.014
350.161
322.686
308.961
304.291
300.121
299.821
304.488
308.02
313.374
324.526
358.818
396.465
413.373
408.716
396.793
396.791
408.7
413.367
396.46
358.815
324.527
313.373
308.017
304.485
299.814
299.962
305.367
309.547
313.91
318.864
334.004
380.356
416.642
421.322
408.392
408.389
421.296
416.631
380.346
334.002
318.866
313.912
309.55
305.375
299.961
300.685
306.981
311.157
315.537
318.803
325.71
356.132
409.871
427.744
416.768
416.765
427.722
409.854
356.118
325.709
318.804
315.537
311.157
306.985
300.688
301.168
307.641
313.041
317.774
320.143
324.965
340.794
395.38
428.576
422.898
422.897
428.556
395.356
340.785
324.965
320.142
317.772
313.037
307.638
301.17
301.637
309.529
315.499
321.09
322.724
326.242
338.369
382.362
424.942
425.618
425.617
424.922
382.339
338.362
326.241
322.725
321.089
315.494
309.52
301.635
301.695
309.145
316.533
324.442
326.005
328.451
339.741
379.436
421.254
425.002
425.002
421.238
379.42
339.736
328.451
326.005
324.442
316.529
309.14
301.693
301.499
307.543
317.316
327.346
329.468
330.815
341.893
378.345
415.241
419.646
419.648
415.233
378.341
341.889
330.816
329.469
327.344
317.31
307.539
301.498
301.786
307.529
315.747
328.937
331.162
333.48
344.913
377.495
405.698
409.752
409.753
405.696
377.505
344.915
333.48
331.161
328.931
315.738
307.523
301.785
301.517
304.66
312.846
327.14
332.496
337.496
350.615
377.014
393.695
396.649
396.651
393.697
377.025
350.623
337.499
332.494
327.136
312.842
304.657
301.516
301.196
304.05
309.659
321.988
333.254
342.54
354.135
369.852
377.687
379.886
379.889
377.696
369.867
354.15
342.547
333.254
321.986
309.655
304.049
301.195
301.462
302.966
304.379
310.235
319.577
329.715
339.401
347.311
352.371
355.29
355.294
352.382
347.325
339.415
329.719
319.577
310.234
304.378
302.966
301.462
301.245
302.627
302.933
304.18
306.899
310.562
315.274
319.806
323.507
326.153
326.154
323.508
319.809
315.275
310.561
306.898
304.181
302.934
302.628
301.246
301.557
302.702
302.596
302.746
303.446
304.286
305.262
306.231
307.173
307.816
307.815
307.172
306.23
305.261
304.286
303.446
302.747
302.598
302.704
301.556
301.846
302.903
302.681
302.55
302.719
302.901
303.095
303.301
303.486
303.602
303.601
303.485
303.3
303.095
302.901
302.72
302.552
302.683
302.905
301.845
301.443
302.273
302.223
302.072
302.122
302.159
302.116
302.091
302.122
302.143
302.143
302.122
302.091
302.117
302.159
302.123
302.074
302.225
302.274
301.443
298.044
298.045
298.045
298.048
298.05
298.055
298.057
298.058
298.06
298.061
298.061
298.06
298.058
298.057
298.055
298.05
298.048
298.045
298.045
298.044
298.019
298.02
298.02
298.023
298.025
298.028
298.029
298.03
298.031
298.032
298.032
298.031
298.03
298.029
298.028
298.025
298.023
298.02
298.02
298.019
)
;
    }
    side1
    {
        type            inletOutlet;
        inletValue      uniform 298;
        value           nonuniform List<scalar> 
20
(
298
298
298
298
298
298
298
298
298
298
298
298
298
298
298
298
298
298
298
298
)
;
    }
    side2
    {
        type            inletOutlet;
        inletValue      uniform 298;
        value           nonuniform List<scalar> 
20
(
298
298
298
298
298
298
298
298
298
298
298
298
298
298
298
298
298
298
298
298
)
;
    }
}


// ************************************************************************* //
