/*--------------------------------*- C++ -*----------------------------------*\
  =========                 |
  \\      /  F ield         | OpenFOAM: The Open Source CFD Toolbox
   \\    /   O peration     | Website:  https://openfoam.org
    \\  /    A nd           | Version:  7
     \\/     M anipulation  |
\*---------------------------------------------------------------------------*/
FoamFile
{
    version     2.0;
    format      ascii;
    class       volVectorField;
    location    "1/filmRegion";
    object      Uf;
}
// * * * * * * * * * * * * * * * * * * * * * * * * * * * * * * * * * * * * * //

dimensions      [0 1 -1 0 0 0 0];

internalField   nonuniform List<vector> 
400
(
(0 -5.70205e-05 9.79493e-06)
(0 -4.19068e-05 1.28444e-05)
(0 -9.68647e-06 6.10692e-06)
(-1.32349e-23 7.85105e-06 -2.55047e-06)
(0 1.46991e-05 -1.02053e-05)
(0 1.0453e-05 -1.38638e-05)
(0 3.84814e-06 -1.1644e-05)
(0 5.788e-06 -1.18153e-05)
(0 4.91012e-06 -1.19128e-05)
(0 1.03848e-06 -1.02327e-05)
(0 -1.06534e-06 -1.02296e-05)
(-5.29396e-23 -4.91124e-06 -1.18943e-05)
(0 -5.7684e-06 -1.18117e-05)
(-5.29396e-23 -3.83993e-06 -1.16426e-05)
(0 -1.04508e-05 -1.38633e-05)
(0 -1.46991e-05 -1.02056e-05)
(-1.32349e-23 -7.85267e-06 -2.5514e-06)
(0 9.68267e-06 6.10561e-06)
(-1.65436e-24 4.19002e-05 1.2846e-05)
(0 5.70284e-05 9.8044e-06)
(0 -2.04106e-05 8.78998e-06)
(0 -4.23502e-05 2.23271e-05)
(0 -4.09716e-05 2.44627e-05)
(1.32349e-23 -2.47586e-05 1.15351e-05)
(0 -7.55991e-06 -6.03816e-06)
(0 7.844e-06 -1.56888e-05)
(0 7.99651e-06 -1.81983e-05)
(0 5.11513e-06 -1.78355e-05)
(0 7.9502e-06 -1.77462e-05)
(0 4.41791e-06 -1.61698e-05)
(0 -4.40137e-06 -1.6164e-05)
(0 -7.9506e-06 -1.77254e-05)
(0 -5.1298e-06 -1.7831e-05)
(0 -7.99429e-06 -1.81973e-05)
(0 -7.84488e-06 -1.56888e-05)
(0 7.55708e-06 -6.04019e-06)
(0 2.47547e-05 1.15297e-05)
(0 4.09729e-05 2.44716e-05)
(0 4.23534e-05 2.23276e-05)
(0 2.041e-05 8.79378e-06)
(0 -5.03316e-06 2.12514e-06)
(0 -1.10952e-05 1.01543e-05)
(0 -3.26309e-05 2.22739e-05)
(0 -5.46152e-05 2.74498e-05)
(0 -4.04387e-05 2.28287e-05)
(0 -1.32643e-05 4.48829e-06)
(0 9.33271e-08 -6.24442e-06)
(0 6.6749e-06 -1.00517e-05)
(0 8.13451e-06 -9.73044e-06)
(0 4.19699e-06 -8.80514e-06)
(0 -4.17084e-06 -8.80156e-06)
(0 -8.13825e-06 -9.73093e-06)
(0 -6.69451e-06 -1.0049e-05)
(0 -9.36589e-08 -6.24438e-06)
(0 1.32602e-05 4.48755e-06)
(0 4.04276e-05 2.28261e-05)
(0 5.46356e-05 2.74497e-05)
(0 3.26365e-05 2.22758e-05)
(0 1.10774e-05 1.01543e-05)
(0 5.03827e-06 2.12653e-06)
(4.1359e-25 -2.78873e-06 -2.30659e-06)
(1.65436e-24 -3.71105e-06 2.81658e-07)
(0 -7.83614e-06 3.98199e-06)
(0 -2.53196e-05 1.55414e-05)
(0 -5.64431e-05 2.8128e-05)
(0 -5.18914e-05 2.3144e-05)
(0 -2.04184e-05 5.85532e-06)
(0 -1.22123e-06 -3.71089e-06)
(0 1.06774e-05 -6.39893e-06)
(0 6.37976e-06 -4.38119e-06)
(0 -6.35698e-06 -4.37957e-06)
(0 -1.06789e-05 -6.39193e-06)
(0 1.20799e-06 -3.70821e-06)
(0 2.0413e-05 5.85683e-06)
(0 5.18845e-05 2.31442e-05)
(0 5.64417e-05 2.8129e-05)
(0 2.53252e-05 1.5546e-05)
(0 7.83821e-06 3.97281e-06)
(0 3.71329e-06 2.78921e-07)
(0 2.79301e-06 -2.30673e-06)
(0 -2.94006e-06 -2.75851e-06)
(0 -3.44928e-06 -9.04349e-07)
(0 -3.59039e-06 -9.91622e-08)
(0 -7.01418e-06 2.13247e-06)
(0 -2.7639e-05 1.11622e-05)
(0 -6.22942e-05 2.64606e-05)
(0 -5.56547e-05 1.86243e-05)
(0 -1.71433e-05 4.65023e-06)
(0 7.4626e-06 -2.18128e-06)
(0 8.46794e-06 -1.84394e-06)
(0 -8.42233e-06 -1.84316e-06)
(0 -7.46368e-06 -2.17513e-06)
(0 1.71107e-05 4.65136e-06)
(0 5.56485e-05 1.86288e-05)
(0 6.22892e-05 2.64611e-05)
(0 2.76364e-05 1.11647e-05)
(0 7.01384e-06 2.13305e-06)
(0 3.58891e-06 -9.95465e-08)
(0 3.4509e-06 -9.0634e-07)
(0 2.94471e-06 -2.76192e-06)
(0 -2.82913e-06 -2.80258e-06)
(0 -3.41445e-06 -7.68898e-07)
(0 -2.9083e-06 -4.14219e-07)
(0 -3.37207e-06 -2.25749e-07)
(0 -8.94555e-06 1.87075e-06)
(0 -4.15219e-05 1.18911e-05)
(0 -6.98314e-05 2.54256e-05)
(0 -4.41319e-05 1.27327e-05)
(0 -1.0248e-06 3.66744e-06)
(0 7.67757e-06 8.82801e-07)
(0 -7.63759e-06 8.82181e-07)
(0 1.024e-06 3.66228e-06)
(0 4.4113e-05 1.27356e-05)
(0 6.98239e-05 2.54275e-05)
(0 4.15095e-05 1.18911e-05)
(0 8.94352e-06 1.87163e-06)
(0 3.37215e-06 -2.24925e-07)
(0 2.90727e-06 -4.12877e-07)
(0 3.4135e-06 -7.65873e-07)
(0 2.82893e-06 -2.80228e-06)
(0 -2.12255e-06 -2.97415e-06)
(0 -3.44488e-06 -7.20309e-07)
(0 -3.16558e-06 -7.74473e-07)
(0 -2.6925e-06 -1.41523e-06)
(0 -4.12855e-06 -5.27262e-07)
(0 -1.8157e-05 2.65451e-06)
(0 -6.14269e-05 1.63041e-05)
(0 -6.60597e-05 1.83674e-05)
(0 -1.55716e-05 8.7208e-06)
(0 4.14693e-06 4.46479e-06)
(0 -4.11032e-06 4.46322e-06)
(0 1.55777e-05 8.71722e-06)
(0 6.60398e-05 1.83716e-05)
(0 6.14121e-05 1.63008e-05)
(0 1.81473e-05 2.65477e-06)
(0 4.12788e-06 -5.27073e-07)
(0 2.69351e-06 -1.41457e-06)
(0 3.16605e-06 -7.73793e-07)
(0 3.44326e-06 -7.2233e-07)
(0 2.12048e-06 -2.97207e-06)
(0 -1.93646e-06 -3.37649e-06)
(0 -3.87175e-06 -1.36171e-06)
(0 -4.66632e-06 -2.45506e-06)
(0 -3.26975e-06 -3.98844e-06)
(0 -1.6621e-06 -2.03038e-06)
(0 -1.02309e-05 6.85358e-07)
(0 -4.48834e-05 5.59662e-06)
(0 -6.7749e-05 1.51988e-05)
(0 -3.1677e-05 1.16556e-05)
(0 1.69083e-07 9.12018e-06)
(0 -1.37551e-07 9.1183e-06)
(0 3.16888e-05 1.16496e-05)
(0 6.77293e-05 1.51974e-05)
(0 4.48633e-05 5.60053e-06)
(0 1.02234e-05 6.85678e-07)
(0 1.66199e-06 -2.03104e-06)
(0 3.27136e-06 -3.98882e-06)
(0 4.66525e-06 -2.45527e-06)
(0 3.87151e-06 -1.36944e-06)
(0 1.93888e-06 -3.37546e-06)
(0 -3.38254e-06 -4.16768e-06)
(0 -6.99318e-06 -3.38489e-06)
(0 -9.56381e-06 -9.47421e-06)
(0 -4.2825e-06 -8.50567e-06)
(0 1.64939e-06 -3.17391e-06)
(0 -7.15434e-06 1.25143e-06)
(0 -3.95684e-05 3.58494e-06)
(0 -6.4519e-05 8.94798e-06)
(0 -3.39139e-05 1.39444e-05)
(0 -1.4507e-06 1.43077e-05)
(0 1.47361e-06 1.4305e-05)
(0 3.39228e-05 1.39359e-05)
(0 6.45175e-05 8.93933e-06)
(0 3.95549e-05 3.58316e-06)
(0 7.13512e-06 1.25062e-06)
(0 -1.65066e-06 -3.17397e-06)
(0 4.28421e-06 -8.50722e-06)
(0 9.5602e-06 -9.47503e-06)
(0 6.99328e-06 -3.40217e-06)
(0 3.39119e-06 -4.16766e-06)
(0 -1.03111e-05 -6.47268e-06)
(0 -2.40545e-05 -1.04004e-05)
(0 -3.65576e-05 -2.84362e-05)
(0 4.0158e-06 -1.42088e-05)
(0 8.88065e-06 -3.15696e-06)
(0 -4.6022e-06 4.07138e-07)
(0 -3.8217e-05 2.14812e-06)
(0 -5.93875e-05 6.5163e-06)
(0 -2.99942e-05 1.68645e-05)
(0 -1.13688e-06 1.92684e-05)
(0 1.15159e-06 1.9267e-05)
(0 2.99971e-05 1.68569e-05)
(0 5.93787e-05 6.50537e-06)
(0 3.82108e-05 2.13858e-06)
(0 4.60049e-06 4.05248e-07)
(0 -8.88049e-06 -3.16231e-06)
(0 -4.01519e-06 -1.42126e-05)
(0 3.65327e-05 -2.84475e-05)
(0 2.42794e-05 -1.04804e-05)
(0 1.03534e-05 -6.47124e-06)
(0 -3.01476e-05 -7.5965e-06)
(0 -0.000118513 -2.18138e-05)
(0 -7.0057e-05 -2.3204e-05)
(0 2.34285e-05 -1.48049e-05)
(0 1.51465e-05 -7.42749e-06)
(0 -1.07423e-05 -6.21762e-06)
(0 -4.21147e-05 -3.69642e-06)
(0 -4.93343e-05 4.4108e-06)
(0 -2.03556e-05 1.93288e-05)
(0 -2.19265e-07 2.24805e-05)
(0 2.30567e-07 2.24789e-05)
(0 2.0347e-05 1.93233e-05)
(0 4.93245e-05 4.40522e-06)
(0 4.21303e-05 -3.70298e-06)
(0 1.07395e-05 -6.22451e-06)
(0 -1.51766e-05 -7.44889e-06)
(0 -2.34019e-05 -1.48115e-05)
(0 7.01615e-05 -2.3211e-05)
(0 0.00011852 -2.17687e-05)
(0 3.01333e-05 -7.5951e-06)
(5.29396e-23 -2.84805e-05 -6.25371e-06)
(5.29396e-23 -0.000108188 3.96362e-06)
(0 -0.000129343 3.42346e-05)
(0 -2.73763e-05 6.80216e-06)
(0 2.90108e-06 -1.18647e-05)
(0 -3.20162e-05 -1.51242e-05)
(0 -7.71785e-05 -8.06263e-06)
(0 -6.33618e-05 2.13465e-05)
(0 -1.57611e-05 4.67731e-05)
(0 1.12027e-06 5.30922e-05)
(0 -1.11538e-06 5.30788e-05)
(0 1.57492e-05 4.67532e-05)
(0 6.33343e-05 2.1344e-05)
(0 7.71975e-05 -8.06993e-06)
(0 3.20506e-05 -1.51331e-05)
(0 -2.8812e-06 -1.18555e-05)
(0 2.74395e-05 6.8199e-06)
(0 0.000129396 3.42472e-05)
(0 0.000108138 3.95039e-06)
(0 2.84678e-05 -6.25455e-06)
(0 -1.77785e-05 -5.36116e-06)
(0 -5.35645e-05 6.40607e-06)
(0 -9.13321e-05 3.70598e-05)
(0 -0.000121596 5.66791e-05)
(0 -9.93943e-05 4.23137e-05)
(0 -8.23469e-05 3.12924e-05)
(0 -7.97968e-05 4.94041e-05)
(0 -5.44526e-05 0.000101837)
(0 -1.58064e-05 0.00011944)
(0 -1.67672e-06 0.000118917)
(0 1.67278e-06 0.000118941)
(0 1.58038e-05 0.000119463)
(0 5.44503e-05 0.000101873)
(0 7.98394e-05 4.94426e-05)
(0 8.24211e-05 3.13278e-05)
(0 9.94536e-05 4.23416e-05)
(0 0.00012162 5.66933e-05)
(0 9.12906e-05 3.70328e-05)
(0 5.35415e-05 6.39283e-06)
(0 1.7776e-05 -5.36278e-06)
(2.64698e-23 -9.50373e-06 -4.35901e-06)
(1.32349e-23 -1.95515e-05 1.59914e-06)
(0 -2.95601e-05 1.41361e-05)
(0 -6.23171e-05 3.81271e-05)
(0 -8.86787e-05 6.44732e-05)
(0 -9.58329e-05 9.46708e-05)
(0 -7.84278e-05 0.000119175)
(0 -5.83e-05 0.000146663)
(0 -2.06603e-05 0.000139594)
(0 2.94378e-06 0.000158719)
(0 -2.9021e-06 0.00015875)
(0 2.06785e-05 0.000139712)
(0 5.82792e-05 0.000146727)
(0 7.84646e-05 0.000119225)
(0 9.58628e-05 9.46825e-05)
(0 8.86753e-05 6.44557e-05)
(0 6.22914e-05 3.81032e-05)
(0 2.95413e-05 1.41187e-05)
(0 1.95523e-05 1.59138e-06)
(0 9.50801e-06 -4.36106e-06)
(0 -6.42055e-06 -4.2878e-06)
(0 -1.05159e-05 -2.11622e-06)
(0 -6.93953e-06 9.88688e-07)
(0 -1.56172e-05 1.04478e-05)
(0 -2.60371e-05 2.51289e-05)
(0 -3.43313e-05 4.091e-05)
(0 -4.09232e-05 5.89496e-05)
(0 -3.77958e-05 7.38359e-05)
(0 -2.71759e-05 8.58132e-05)
(0 -9.25065e-06 7.88921e-05)
(0 9.27729e-06 7.89184e-05)
(0 2.71728e-05 8.58037e-05)
(0 3.77912e-05 7.38349e-05)
(0 4.09216e-05 5.89451e-05)
(0 3.43234e-05 4.08967e-05)
(0 2.60248e-05 2.51158e-05)
(0 1.56057e-05 1.04341e-05)
(0 6.93579e-06 9.80935e-07)
(0 1.05269e-05 -2.11982e-06)
(0 6.4278e-06 -4.28779e-06)
(0 -5.90665e-06 -9.83215e-06)
(0 -8.11669e-06 -6.51018e-06)
(0 -2.06848e-06 -5.72347e-06)
(0 -4.29795e-06 -3.80112e-06)
(0 -7.4873e-06 9.58205e-07)
(0 -8.66052e-06 6.61924e-06)
(0 -9.59835e-06 1.42991e-05)
(0 -9.80945e-06 2.16492e-05)
(0 -7.87678e-06 2.80773e-05)
(0 -2.84177e-06 3.22307e-05)
(0 2.84886e-06 3.22244e-05)
(0 7.87249e-06 2.80698e-05)
(0 9.80381e-06 2.1645e-05)
(0 9.59272e-06 1.42937e-05)
(-8.27181e-25 8.65296e-06 6.61391e-06)
(0 7.47783e-06 9.53386e-07)
(0 4.29279e-06 -3.80249e-06)
(0 2.0725e-06 -5.72241e-06)
(0 8.13145e-06 -6.50885e-06)
(-5.29396e-23 5.91655e-06 -9.83147e-06)
(4.23516e-22 -4.04936e-06 -0.00866125)
(-1.05879e-22 -8.95969e-06 -0.00861539)
(0 -2.84395e-06 -0.00862578)
(0 -4.82424e-06 -0.00862465)
(0 -6.66297e-06 -0.00862071)
(0 -6.23297e-06 -0.00861474)
(0 -5.67784e-06 -0.00860797)
(0 -5.11202e-06 -0.00860056)
(0 -3.88442e-06 -0.00859379)
(0 -1.46946e-06 -0.00859003)
(0 1.46831e-06 -0.00859004)
(0 3.87678e-06 -0.00859379)
(0 5.10435e-06 -0.00860056)
(0 5.66663e-06 -0.00860796)
(0 6.21856e-06 -0.00861473)
(0 6.65384e-06 -0.0086207)
(0 4.82264e-06 -0.00862463)
(0 2.84745e-06 -0.00862576)
(0 8.97747e-06 -0.00861538)
(0 4.06349e-06 -0.00866126)
(0 -0.000359642 -0.0693931)
(0 -0.000515756 -0.0683769)
(0 -0.000332573 -0.0684316)
(0 -0.000288896 -0.0684443)
(0 -0.00024122 -0.0684632)
(0 -0.000197378 -0.0684509)
(0 -0.00015516 -0.0684403)
(0 -0.000113497 -0.068415)
(0 -6.97741e-05 -0.0683997)
(0 -2.37256e-05 -0.0683898)
(0 2.35945e-05 -0.0683898)
(0 6.962e-05 -0.0683996)
(0 0.000113319 -0.068415)
(0 0.000154965 -0.0684402)
(0 0.00019719 -0.0684508)
(0 0.00024112 -0.068463)
(0 0.000288882 -0.068444)
(0 0.000332537 -0.0684313)
(0 0.000515724 -0.0683766)
(0 0.00035956 -0.0693932)
(-1.35525e-20 -0.00245722 -0.375042)
(-1.35525e-20 -0.00203188 -0.372169)
(0 -0.00188301 -0.372614)
(0 -0.0015168 -0.372731)
(0 -0.00131471 -0.373012)
(0 -0.00103262 -0.373104)
(0 -0.000802113 -0.373206)
(0 -0.000568151 -0.373238)
(0 -0.000342112 -0.373277)
(0 -0.000115115 -0.373292)
(0 0.000114325 -0.373292)
(0 0.000341302 -0.373277)
(0 0.000567351 -0.373238)
(0 0.000801398 -0.373206)
(0 0.00103208 -0.373103)
(0 0.00131446 -0.373012)
(0 0.00151684 -0.372731)
(0 0.00188304 -0.372613)
(0 0.0020318 -0.372168)
(0 0.00245673 -0.375042)
(0 -0.00325194 -0.414743)
(0 -0.00250144 -0.41358)
(0 -0.0021751 -0.413703)
(0 -0.00171279 -0.413829)
(0 -0.00149954 -0.41393)
(0 -0.00119119 -0.414119)
(0 -0.000920189 -0.41416)
(0 -0.000653221 -0.41419)
(0 -0.000391555 -0.414217)
(0 -0.000132325 -0.414244)
(0 0.000131585 -0.414243)
(0 0.000390695 -0.414217)
(0 0.00065231 -0.41419)
(0 0.000919351 -0.414161)
(0 0.0011905 -0.414119)
(0 0.00149907 -0.41393)
(0 0.00171251 -0.41383)
(0 0.00217482 -0.413703)
(0 0.00250129 -0.41358)
(0 0.00325203 -0.414743)
)
;

boundaryField
{
    outlet
    {
        type            zeroGradient;
    }
    inlet
    {
        type            fixedValue;
        value           uniform (0 0 -0.01);
    }
    coupledWall_top
    {
        type            slip;
    }
    region0_to_filmRegion_coupledWall
    {
        type            noSlip;
    }
    side1
    {
        type            noSlip;
    }
    side2
    {
        type            noSlip;
    }
}


// ************************************************************************* //
