/*--------------------------------*- C++ -*----------------------------------*\
  =========                 |
  \\      /  F ield         | OpenFOAM: The Open Source CFD Toolbox
   \\    /   O peration     | Website:  https://openfoam.org
    \\  /    A nd           | Version:  7
     \\/     M anipulation  |
\*---------------------------------------------------------------------------*/
FoamFile
{
    version     2.0;
    format      ascii;
    class       volScalarField;
    location    "1/pyrolysisRegion";
    object      chemistryQdot;
}
// * * * * * * * * * * * * * * * * * * * * * * * * * * * * * * * * * * * * * //

dimensions      [1 -1 -3 0 0 0 0];

internalField   uniform 0;

boundaryField
{
    coupledWall_top
    {
        type            calculated;
        value           uniform 0;
    }
    region0_to_pyrolysisRegion_coupledWall
    {
        type            calculated;
        value           uniform 0;
    }
    oneDEmptyPatch
    {
        type            empty;
    }
}


// ************************************************************************* //
