/*--------------------------------*- C++ -*----------------------------------*\
  =========                 |
  \\      /  F ield         | OpenFOAM: The Open Source CFD Toolbox
   \\    /   O peration     | Website:  https://openfoam.org
    \\  /    A nd           | Version:  7
     \\/     M anipulation  |
\*---------------------------------------------------------------------------*/
FoamFile
{
    version     2.0;
    format      ascii;
    class       volScalarField;
    location    "1/pyrolysisRegion";
    object      qr;
}
// * * * * * * * * * * * * * * * * * * * * * * * * * * * * * * * * * * * * * //

dimensions      [1 0 -3 0 0 0 0];

internalField   uniform 0;

boundaryField
{
    coupledWall_top
    {
        type            zeroGradient;
    }
    region0_to_pyrolysisRegion_coupledWall
    {
        type            mappedField;
        sampleMode      nearestPatchFace;
        sampleRegion    region0;
        samplePatch     region0_to_pyrolysisRegion_coupledWall;
        field           qr;
        setAverage      0;
        average         0;
        interpolationScheme cell;
        value           uniform 0;
    }
    oneDEmptyPatch
    {
        type            empty;
    }
}


// ************************************************************************* //
