/*--------------------------------*- C++ -*----------------------------------*\
  =========                 |
  \\      /  F ield         | OpenFOAM: The Open Source CFD Toolbox
   \\    /   O peration     | Website:  https://openfoam.org
    \\  /    A nd           | Version:  7
     \\/     M anipulation  |
\*---------------------------------------------------------------------------*/
FoamFile
{
    version     2.0;
    format      ascii;
    class       volScalarField;
    location    "1/pyrolysisRegion";
    object      T;
}
// * * * * * * * * * * * * * * * * * * * * * * * * * * * * * * * * * * * * * //

dimensions      [0 0 0 1 0 0 0];

internalField   nonuniform List<scalar> 
3200
(
305.865
303.421
301.784
300.586
299.701
299.081
298.693
298.509
332.583
320.278
312.036
306.552
303.016
300.853
299.644
299.109
348.226
331.467
319.263
310.814
305.334
302.032
300.227
299.445
350.461
333.964
321.097
311.909
305.892
302.273
300.314
299.472
346.708
332.026
319.942
311.161
305.405
301.967
300.121
299.335
339.09
327.116
316.874
309.326
304.362
301.401
299.816
299.143
332.439
321.935
313.465
307.3
303.244
300.816
299.512
298.956
327.804
317.735
310.42
305.387
302.159
300.243
299.214
298.774
321.937
313.093
307.253
303.464
301.095
299.693
298.934
298.607
318.462
310.274
305.302
302.263
300.421
299.34
298.752
298.496
318.463
310.275
305.302
302.263
300.421
299.34
298.752
298.496
321.942
313.094
307.253
303.464
301.095
299.693
298.934
298.607
327.806
317.736
310.421
305.388
302.159
300.243
299.214
298.774
332.441
321.936
313.466
307.3
303.244
300.816
299.512
298.956
339.09
327.116
316.874
309.326
304.362
301.401
299.816
299.143
346.707
332.025
319.942
311.161
305.405
301.967
300.121
299.335
350.46
333.963
321.097
311.909
305.891
302.273
300.314
299.472
348.226
331.467
319.263
310.813
305.334
302.032
300.227
299.445
332.582
320.277
312.036
306.552
303.016
300.853
299.644
299.109
305.865
303.421
301.784
300.586
299.701
299.081
298.693
298.509
301.283
300.687
300.161
299.628
299.14
298.752
298.492
298.363
308.727
305.706
303.724
302.081
300.731
299.726
299.08
298.77
320.355
312.319
307.683
304.423
302.054
300.434
299.451
298.995
337.706
322.398
313.363
307.551
303.711
301.272
299.868
299.237
357.296
335.402
321.064
311.668
305.721
302.178
300.257
299.43
367.62
343.34
325.838
314.148
306.868
302.654
300.437
299.503
367.068
344.346
326.72
314.588
307.003
302.653
300.397
299.458
360.629
339.775
323.924
312.999
306.146
302.212
300.171
299.322
353.563
334.284
320.303
310.892
305.035
301.667
299.91
299.175
345.972
328.582
316.7
308.9
304.041
301.208
299.704
299.066
345.967
328.579
316.699
308.899
304.041
301.208
299.704
299.066
353.518
334.255
320.289
310.887
305.033
301.666
299.909
299.175
360.626
339.774
323.924
312.999
306.146
302.212
300.171
299.322
367.066
344.345
326.72
314.588
307.003
302.653
300.397
299.458
367.619
343.34
325.838
314.148
306.868
302.654
300.437
299.503
357.296
335.403
321.064
311.669
305.721
302.178
300.257
299.43
337.707
322.398
313.364
307.551
303.711
301.272
299.868
299.237
320.356
312.319
307.683
304.423
302.054
300.434
299.451
298.995
308.727
305.706
303.724
302.081
300.731
299.726
299.08
298.77
301.283
300.687
300.161
299.628
299.14
298.752
298.492
298.363
300.081
299.877
299.539
299.147
298.784
298.499
298.313
298.222
304.075
303.372
302.322
301.153
300.098
299.296
298.783
298.538
308.016
306.373
304.523
302.627
300.993
299.792
299.045
298.697
317.248
311.64
307.916
304.774
302.257
300.482
299.408
298.916
335.668
320.798
312.779
307.357
303.565
301.101
299.688
299.062
361.61
335.855
320.448
310.972
305.165
301.767
299.954
299.185
380.339
349.66
328.432
314.904
306.867
302.425
300.186
299.274
381.811
351.974
330.043
315.689
307.153
302.494
300.184
299.256
374.408
347.246
327.406
314.336
306.501
302.196
300.051
299.186
365.265
340.762
323.618
312.415
305.628
301.83
299.904
299.116
365.263
340.762
323.618
312.416
305.628
301.83
299.904
299.116
374.385
347.236
327.404
314.336
306.501
302.196
300.051
299.186
381.809
351.974
330.043
315.689
307.153
302.494
300.184
299.256
380.34
349.661
328.433
314.904
306.867
302.425
300.186
299.274
361.61
335.855
320.448
310.972
305.165
301.767
299.954
299.185
335.67
320.799
312.779
307.358
303.566
301.101
299.689
299.062
317.251
311.641
307.917
304.774
302.258
300.482
299.408
298.916
308.017
306.375
304.524
302.628
300.993
299.792
299.045
298.697
304.079
303.375
302.325
301.155
300.1
299.297
298.783
298.539
300.083
299.879
299.54
299.148
298.784
298.5
298.313
298.222
299.8
299.608
299.282
298.917
298.596
298.358
298.21
298.141
304.403
303.665
302.435
301.097
299.951
299.13
298.634
298.407
307.837
306.603
304.628
302.535
300.789
299.571
298.852
298.531
312.618
310.425
307.423
304.356
301.85
300.132
299.135
298.694
320.439
315.125
310.365
306.059
302.735
300.546
299.314
298.781
342.49
324.985
315.061
308.317
303.772
300.988
299.491
298.862
374.331
343.177
323.961
312.244
305.357
301.575
299.693
298.939
391.231
355.04
330.334
315.075
306.432
301.927
299.792
298.964
388.479
354.213
330.033
314.882
306.292
301.838
299.742
298.934
377.995
347.621
326.542
313.246
305.595
301.564
299.638
298.888
377.995
347.622
326.543
313.246
305.595
301.564
299.638
298.888
388.466
354.211
330.034
314.883
306.292
301.839
299.742
298.934
391.226
355.038
330.333
315.075
306.432
301.927
299.792
298.964
374.326
343.174
323.959
312.244
305.357
301.575
299.693
298.939
342.486
324.983
315.061
308.317
303.772
300.988
299.491
298.862
320.439
315.126
310.366
306.059
302.735
300.546
299.314
298.781
312.617
310.424
307.423
304.356
301.85
300.132
299.135
298.694
307.835
306.601
304.626
302.534
300.789
299.571
298.852
298.531
304.4
303.663
302.434
301.096
299.951
299.13
298.634
298.407
299.792
299.601
299.277
298.914
298.594
298.357
298.209
298.14
299.938
299.702
299.311
298.896
298.55
298.31
298.169
298.105
305.266
304.287
302.713
301.106
299.829
298.982
298.505
298.299
309.37
307.718
305.141
302.588
300.624
299.363
298.675
298.385
313.606
311.245
307.658
304.154
301.487
299.793
298.878
298.495
317.954
314.483
309.784
305.362
302.086
300.056
298.983
298.541
328.018
319.782
312.705
306.863
302.779
300.342
299.091
298.586
359.58
334.188
319.138
309.612
303.867
300.733
299.219
298.631
390.889
352.183
327.514
312.948
305.03
301.089
299.313
298.655
396.498
356.169
329.378
313.583
305.175
301.094
299.295
298.638
386.162
350.466
326.56
312.306
304.641
300.886
299.217
298.604
386.163
350.468
326.561
312.307
304.641
300.886
299.217
298.604
396.485
356.168
329.38
313.585
305.176
301.094
299.295
298.638
390.88
352.179
327.512
312.947
305.029
301.089
299.313
298.655
359.571
334.184
319.136
309.612
303.867
300.733
299.219
298.631
328.016
319.782
312.705
306.863
302.779
300.342
299.091
298.586
317.956
314.485
309.785
305.363
302.087
300.056
298.983
298.541
313.608
311.247
307.66
304.156
301.488
299.794
298.878
298.495
309.373
307.722
305.143
302.59
300.625
299.364
298.676
298.385
305.273
304.293
302.718
301.11
299.831
298.982
298.505
298.299
299.937
299.701
299.31
298.895
298.55
298.31
298.169
298.105
300.649
300.265
299.661
299.063
298.606
298.314
298.155
298.089
306.842
305.431
303.284
301.252
299.77
298.871
298.406
298.218
310.929
308.688
305.404
302.419
300.328
299.108
298.498
298.258
315.193
312.086
307.665
303.716
300.985
299.407
298.627
298.321
318.248
314.369
309.086
304.467
301.326
299.542
298.674
298.339
323.902
318.083
311.258
305.57
301.816
299.734
298.743
298.366
343.487
327.197
315.527
307.413
302.524
299.975
298.815
298.388
383.323
346.264
323.462
310.337
303.481
300.252
298.884
298.404
398.796
354.371
326.645
311.318
303.708
300.278
298.874
298.393
390.922
350.282
324.613
310.383
303.314
300.126
298.819
298.37
390.924
350.285
324.615
310.383
303.315
300.126
298.819
298.37
398.785
354.371
326.646
311.319
303.708
300.278
298.874
298.393
383.31
346.257
323.459
310.336
303.481
300.251
298.884
298.404
343.478
327.193
315.526
307.413
302.524
299.975
298.815
298.388
323.902
318.083
311.258
305.57
301.816
299.734
298.743
298.366
318.249
314.37
309.087
304.467
301.326
299.542
298.674
298.339
315.194
312.086
307.665
303.716
300.985
299.407
298.627
298.321
310.929
308.688
305.404
302.419
300.328
299.108
298.498
298.258
306.846
305.434
303.286
301.253
299.77
298.871
298.407
298.218
300.652
300.268
299.662
299.064
298.606
298.314
298.155
298.089
301.116
300.578
299.791
299.075
298.57
298.274
298.125
298.065
307.454
305.6
303.039
300.858
299.427
298.643
298.273
298.133
312.693
309.443
305.261
301.93
299.874
298.807
298.328
298.153
317.23
312.826
307.338
303.02
300.375
299.014
298.407
298.188
319.366
314.313
308.21
303.453
300.558
299.079
298.426
298.193
323.597
317.184
309.851
304.249
300.892
299.203
298.468
298.209
335.384
323.545
312.902
305.515
301.346
299.344
298.506
298.219
372.509
339.93
319.372
307.777
302.045
299.535
298.552
298.229
396.741
350.15
322.8
308.707
302.238
299.555
298.545
298.222
392.709
347.777
321.477
308.068
301.969
299.455
298.51
298.209
392.712
347.781
321.479
308.069
301.969
299.455
298.51
298.209
396.731
350.149
322.801
308.708
302.238
299.555
298.545
298.222
372.491
339.921
319.369
307.776
302.045
299.535
298.552
298.229
335.378
323.542
312.901
305.514
301.346
299.344
298.506
298.219
323.597
317.184
309.85
304.249
300.892
299.203
298.468
298.209
319.366
314.312
308.21
303.453
300.557
299.079
298.426
298.193
317.229
312.825
307.337
303.02
300.375
299.014
298.407
298.188
312.689
309.44
305.259
301.929
299.874
298.807
298.328
298.153
307.451
305.598
303.038
300.858
299.427
298.643
298.273
298.133
301.117
300.579
299.792
299.075
298.571
298.274
298.125
298.065
301.544
300.762
299.775
298.982
298.481
298.213
298.089
298.043
309.18
306.24
302.867
300.449
299.09
298.44
298.167
298.073
314.812
309.772
304.595
301.162
299.345
298.52
298.19
298.08
319.811
313.127
306.465
302.046
299.708
298.652
298.234
298.097
321.168
314.165
307.127
302.379
299.844
298.699
298.248
298.1
324.221
316.221
308.269
302.908
300.054
298.772
298.271
298.108
333.821
321.479
310.666
303.828
300.356
298.858
298.292
298.113
364.613
334.855
315.652
305.444
300.818
298.975
298.318
298.119
391.885
344.552
318.493
306.128
300.945
298.987
298.315
298.116
391.402
343.406
317.672
305.72
300.779
298.929
298.296
298.109
391.405
343.41
317.674
305.72
300.78
298.929
298.296
298.109
391.877
344.553
318.494
306.129
300.945
298.987
298.315
298.116
364.597
334.848
315.65
305.444
300.818
298.975
298.318
298.119
333.816
321.477
310.665
303.828
300.356
298.858
298.292
298.113
324.22
316.22
308.268
302.907
300.054
298.772
298.271
298.108
321.169
314.165
307.127
302.379
299.844
298.699
298.248
298.1
319.81
313.127
306.465
302.045
299.708
298.652
298.234
298.097
314.807
309.768
304.594
301.161
299.345
298.52
298.19
298.08
309.171
306.234
302.864
300.447
299.089
298.44
298.167
298.073
301.543
300.761
299.775
298.982
298.481
298.213
298.089
298.043
301.555
300.625
299.58
298.814
298.37
298.152
298.058
298.026
308.538
304.997
301.701
299.678
298.678
298.25
298.087
298.035
314.747
308.152
302.985
300.122
298.81
298.283
298.094
298.036
321.466
312.162
304.914
300.901
299.083
298.368
298.118
298.043
322.88
313.356
305.646
301.239
299.209
298.408
298.129
298.046
325.108
315.016
306.568
301.644
299.357
298.455
298.143
298.051
334.096
319.692
308.521
302.323
299.561
298.509
298.155
298.054
360.947
330.338
312.071
303.35
299.824
298.57
298.168
298.057
385.779
338.041
314.058
303.779
299.898
298.578
298.167
298.056
386.865
337.519
313.581
303.549
299.813
298.551
298.159
298.053
386.868
337.522
313.583
303.55
299.813
298.551
298.159
298.053
385.774
338.042
314.059
303.779
299.898
298.578
298.167
298.056
360.938
330.335
312.07
303.35
299.824
298.569
298.168
298.057
334.092
319.69
308.52
302.323
299.56
298.509
298.155
298.054
325.108
315.016
306.568
301.644
299.357
298.455
298.143
298.051
322.88
313.355
305.645
301.239
299.209
298.408
298.129
298.046
321.465
312.162
304.913
300.901
299.083
298.368
298.118
298.043
314.743
308.15
302.984
300.122
298.81
298.283
298.094
298.036
308.533
304.993
301.699
299.678
298.678
298.25
298.087
298.035
301.554
300.624
299.579
298.814
298.37
298.152
298.058
298.026
301.252
300.237
299.262
298.611
298.26
298.1
298.035
298.014
306.218
302.677
300.217
298.927
298.35
298.122
298.04
298.015
313.197
305.675
301.267
299.233
298.425
298.136
298.042
298.015
321.593
309.994
303.008
299.823
298.599
298.182
298.053
298.018
323.647
311.597
303.843
300.151
298.704
298.211
298.06
298.019
325.822
313.397
304.752
300.502
298.818
298.243
298.068
298.022
334.494
317.468
306.247
300.961
298.94
298.272
298.074
298.023
357.647
325.484
308.583
301.56
299.08
298.302
298.08
298.024
377.53
330.753
309.777
301.797
299.121
298.308
298.081
298.024
378.991
330.572
309.548
301.695
299.087
298.299
298.078
298.024
378.994
330.574
309.549
301.695
299.087
298.299
298.078
298.024
377.529
330.755
309.778
301.798
299.121
298.308
298.081
298.024
357.645
325.484
308.583
301.56
299.08
298.302
298.08
298.024
334.492
317.467
306.247
300.96
298.94
298.272
298.074
298.023
325.822
313.397
304.752
300.502
298.818
298.243
298.068
298.022
323.647
311.597
303.843
300.151
298.704
298.211
298.06
298.019
321.591
309.993
303.008
299.822
298.599
298.182
298.053
298.018
313.192
305.673
301.266
299.233
298.425
298.136
298.042
298.015
306.215
302.675
300.216
298.927
298.35
298.122
298.04
298.015
301.251
300.236
299.262
298.611
298.26
298.1
298.035
298.014
301.304
300.071
299.081
298.485
298.191
298.067
298.022
298.008
304.985
301.383
299.456
298.566
298.2
298.065
298.02
298.007
310.543
303.38
300.011
298.688
298.22
298.067
298.019
298.006
320.009
307.201
301.241
299.022
298.299
298.083
298.022
298.007
323.048
309.184
302.052
299.277
298.366
298.098
298.025
298.008
326.221
311.207
302.877
299.541
298.438
298.115
298.029
298.008
334.742
314.587
303.927
299.819
298.503
298.129
298.032
298.009
353.321
319.98
305.286
300.132
298.57
298.143
298.034
298.009
366.845
323.042
305.922
300.258
298.594
298.147
298.035
298.01
368.266
323.112
305.876
300.237
298.588
298.146
298.035
298.01
368.268
323.114
305.877
300.237
298.588
298.146
298.035
298.01
366.847
323.044
305.923
300.258
298.594
298.147
298.035
298.01
353.326
319.982
305.287
300.132
298.57
298.143
298.034
298.009
334.743
314.587
303.927
299.819
298.503
298.129
298.032
298.009
326.221
311.206
302.877
299.541
298.438
298.115
298.029
298.008
323.047
309.183
302.051
299.277
298.366
298.098
298.025
298.008
320.005
307.2
301.241
299.022
298.299
298.083
298.022
298.007
310.536
303.377
300.01
298.688
298.22
298.067
298.019
298.006
304.981
301.381
299.456
298.565
298.2
298.065
298.02
298.007
301.303
300.07
299.081
298.485
298.191
298.067
298.022
298.008
300.99
299.75
298.847
298.351
298.127
298.041
298.012
298.004
302.819
300.322
298.976
298.362
298.121
298.037
298.01
298.003
307.294
301.422
299.18
298.387
298.119
298.035
298.009
298.003
316.041
304.07
299.822
298.517
298.142
298.038
298.01
298.003
321.192
306.274
300.47
298.671
298.173
298.043
298.01
298.003
325.747
308.289
301.096
298.828
298.207
298.049
298.012
298.003
333.774
310.8
301.748
298.977
298.237
298.055
298.012
298.003
346.72
313.919
302.446
299.125
298.267
298.061
298.013
298.003
354.186
315.495
302.775
299.193
298.281
298.063
298.014
298.004
355.415
315.747
302.835
299.208
298.284
298.064
298.014
298.004
355.418
315.748
302.835
299.208
298.284
298.064
298.014
298.004
354.19
315.497
302.776
299.193
298.281
298.063
298.014
298.004
346.728
313.922
302.447
299.125
298.267
298.061
298.013
298.003
333.779
310.801
301.748
298.977
298.237
298.055
298.012
298.003
325.749
308.289
301.096
298.828
298.207
298.049
298.012
298.003
321.19
306.273
300.47
298.67
298.173
298.043
298.01
298.003
316.039
304.069
299.821
298.517
298.142
298.038
298.01
298.003
307.291
301.421
299.18
298.387
298.119
298.035
298.01
298.003
302.817
300.321
298.976
298.362
298.121
298.037
298.01
298.003
300.989
299.75
298.847
298.351
298.127
298.041
298.012
298.004
300.68
299.494
298.675
298.257
298.085
298.025
298.007
298.002
302.137
299.792
298.695
298.239
298.073
298.021
298.005
298.002
304.449
300.16
298.731
298.234
298.069
298.019
298.005
298.001
310.174
301.357
298.933
298.26
298.07
298.018
298.004
298.001
316.441
302.976
299.264
298.317
298.078
298.019
298.004
298.001
322.14
304.629
299.632
298.386
298.09
298.021
298.005
298.001
328.506
306.272
299.992
298.455
298.102
298.022
298.005
298.001
335.69
307.873
300.327
298.52
298.113
298.024
298.005
298.001
339.467
308.738
300.517
298.559
298.12
298.026
298.005
298.001
340.711
309.093
300.605
298.578
298.124
298.026
298.005
298.001
340.713
309.093
300.605
298.578
298.124
298.026
298.005
298.001
339.473
308.74
300.517
298.559
298.12
298.026
298.005
298.001
335.698
307.875
300.327
298.52
298.113
298.024
298.005
298.001
328.513
306.273
299.993
298.455
298.102
298.022
298.005
298.001
322.142
304.629
299.632
298.386
298.09
298.021
298.005
298.001
316.44
302.975
299.264
298.316
298.078
298.019
298.004
298.001
310.173
301.356
298.933
298.26
298.07
298.018
298.004
298.001
304.447
300.159
298.731
298.234
298.069
298.019
298.005
298.001
302.136
299.792
298.695
298.239
298.073
298.021
298.005
298.002
300.68
299.494
298.675
298.257
298.085
298.025
298.007
298.002
300.622
299.339
298.544
298.186
298.055
298.015
298.004
298.001
301.512
299.472
298.527
298.164
298.046
298.011
298.003
298.001
301.987
299.474
298.499
298.151
298.041
298.01
298.002
298.001
304.314
299.8
298.527
298.148
298.038
298.009
298.002
298.001
308.092
300.443
298.622
298.158
298.039
298.009
298.002
298
312.499
301.264
298.754
298.177
298.041
298.009
298.002
298
316.872
302.147
298.906
298.2
298.044
298.01
298.002
298
320.645
302.934
299.049
298.224
298.048
298.01
298.002
298
323.086
303.477
299.154
298.242
298.051
298.01
298.002
298
324.575
303.821
299.22
298.253
298.052
298.011
298.002
298
324.577
303.821
299.22
298.253
298.052
298.011
298.002
298
323.09
303.477
299.154
298.242
298.051
298.01
298.002
298
320.651
302.935
299.049
298.224
298.048
298.01
298.002
298
316.876
302.148
298.906
298.2
298.044
298.01
298.002
298
312.5
301.264
298.754
298.177
298.041
298.009
298.002
298
308.092
300.443
298.622
298.158
298.039
298.009
298.002
298
304.314
299.8
298.527
298.148
298.038
298.009
298.002
298.001
301.987
299.475
298.499
298.151
298.041
298.01
298.002
298.001
301.513
299.472
298.527
298.164
298.046
298.011
298.003
298.001
300.622
299.339
298.544
298.186
298.055
298.015
298.004
298.001
300.603
299.18
298.424
298.128
298.033
298.008
298.002
298
301.096
299.199
298.387
298.108
298.027
298.006
298.001
298
301.191
299.168
298.363
298.099
298.024
298.005
298.001
298
301.616
299.174
298.344
298.09
298.022
298.005
298.001
298
302.759
299.349
298.366
298.092
298.021
298.005
298.001
298
304.206
299.557
298.393
298.094
298.021
298.004
298.001
298
306.051
299.835
298.431
298.099
298.022
298.004
298.001
298
307.796
300.117
298.474
298.105
298.023
298.005
298.001
298
309.219
300.365
298.512
298.111
298.023
298.005
298.001
298
310.243
300.534
298.537
298.114
298.024
298.005
298.001
298
310.243
300.533
298.537
298.114
298.024
298.005
298.001
298
309.219
300.365
298.512
298.111
298.023
298.005
298.001
298
307.797
300.117
298.474
298.105
298.023
298.005
298.001
298
306.051
299.835
298.431
298.099
298.022
298.004
298.001
298
304.206
299.557
298.393
298.094
298.021
298.004
298.001
298
302.759
299.349
298.366
298.092
298.021
298.005
298.001
298
301.617
299.175
298.344
298.091
298.022
298.005
298.001
298
301.192
299.169
298.364
298.099
298.024
298.005
298.001
298
301.096
299.199
298.387
298.108
298.027
298.006
298.001
298
300.603
299.18
298.424
298.128
298.033
298.008
298.002
298
300.626
299.022
298.316
298.082
298.019
298.004
298.001
298
301.067
299.025
298.286
298.069
298.015
298.003
298.001
298
300.945
298.965
298.262
298.062
298.013
298.003
298
298
300.898
298.908
298.241
298.056
298.012
298.002
298
298
301.166
298.939
298.241
298.055
298.011
298.002
298
298
301.504
298.992
298.248
298.055
298.011
298.002
298
298
301.896
299.051
298.255
298.056
298.011
298.002
298
298
302.291
299.116
298.265
298.058
298.012
298.002
298
298
302.675
299.178
298.275
298.059
298.012
298.002
298
298
302.924
299.219
298.281
298.06
298.012
298.002
298
298
302.924
299.218
298.281
298.06
298.012
298.002
298
298
302.675
299.178
298.275
298.059
298.012
298.002
298
298
302.291
299.116
298.265
298.058
298.012
298.002
298
298
301.895
299.051
298.256
298.056
298.011
298.002
298
298
301.504
298.992
298.248
298.055
298.011
298.002
298
298
301.166
298.94
298.241
298.055
298.011
298.002
298
298
300.899
298.909
298.241
298.056
298.012
298.002
298
298
300.946
298.966
298.263
298.062
298.013
298.003
298
298
301.068
299.026
298.286
298.069
298.015
298.003
298.001
298
300.626
299.022
298.316
298.082
298.019
298.004
298.001
298
300.524
298.826
298.215
298.047
298.009
298.002
298
298
300.814
298.81
298.193
298.04
298.007
298.001
298
298
300.706
298.759
298.176
298.036
298.007
298.001
298
298
300.598
298.712
298.163
298.033
298.006
298.001
298
298
300.655
298.71
298.16
298.032
298.006
298.001
298
298
300.742
298.73
298.163
298.032
298.006
298.001
298
298
300.812
298.741
298.165
298.033
298.006
298.001
298
298
300.897
298.758
298.168
298.033
298.006
298.001
298
298
300.969
298.772
298.17
298.033
298.006
298.001
298
298
301.018
298.783
298.173
298.034
298.006
298.001
298
298
301.018
298.783
298.173
298.034
298.006
298.001
298
298
300.969
298.772
298.17
298.033
298.006
298.001
298
298
300.897
298.758
298.168
298.033
298.006
298.001
298
298
300.812
298.741
298.165
298.033
298.006
298.001
298
298
300.742
298.73
298.163
298.032
298.006
298.001
298
298
300.656
298.711
298.16
298.032
298.006
298.001
298
298
300.599
298.712
298.163
298.033
298.006
298.001
298
298
300.707
298.759
298.176
298.036
298.007
298.001
298
298
300.815
298.81
298.193
298.04
298.007
298.001
298
298
300.524
298.826
298.215
298.047
298.009
298.002
298
298
300.005
298.533
298.115
298.021
298.004
298.001
298
298
300.201
298.516
298.103
298.018
298.003
298
298
298
300.115
298.488
298.095
298.016
298.003
298
298
298
300.039
298.469
298.091
298.016
298.003
298
298
298
300.043
298.463
298.089
298.015
298.002
298
298
298
300.09
298.48
298.093
298.016
298.003
298
298
298
300.078
298.481
298.094
298.016
298.003
298
298
298
300.076
298.485
298.095
298.017
298.003
298
298
298
300.091
298.49
298.096
298.017
298.003
298
298
298
300.104
298.495
298.098
298.017
298.003
298
298
298
300.103
298.495
298.098
298.017
298.003
298
298
298
300.091
298.49
298.096
298.017
298.003
298
298
298
300.076
298.485
298.095
298.017
298.003
298
298
298
300.078
298.481
298.094
298.016
298.003
298
298
298
300.09
298.48
298.093
298.016
298.003
298
298
298
300.044
298.464
298.089
298.015
298.002
298
298
298
300.04
298.469
298.091
298.016
298.003
298
298
298
300.116
298.488
298.095
298.016
298.003
298
298
298
300.202
298.516
298.103
298.018
298.003
298
298
298
300.004
298.533
298.115
298.021
298.004
298.001
298
298
298.016
298.002
298
298
298
298
298
298
298.016
298.002
298
298
298
298
298
298
298.016
298.002
298
298
298
298
298
298
298.017
298.002
298
298
298
298
298
298
298.018
298.003
298
298
298
298
298
298
298.02
298.003
298
298
298
298
298
298
298.02
298.003
298
298
298
298
298
298
298.021
298.003
298
298
298
298
298
298
298.022
298.003
298
298
298
298
298
298
298.022
298.003
298
298
298
298
298
298
298.022
298.003
298
298
298
298
298
298
298.022
298.003
298
298
298
298
298
298
298.021
298.003
298
298
298
298
298
298
298.02
298.003
298
298
298
298
298
298
298.02
298.003
298
298
298
298
298
298
298.018
298.003
298
298
298
298
298
298
298.017
298.002
298
298
298
298
298
298
298.016
298.002
298
298
298
298
298
298
298.016
298.002
298
298
298
298
298
298
298.016
298.002
298
298
298
298
298
298
298.007
298.001
298
298
298
298
298
298
298.007
298.001
298
298
298
298
298
298
298.007
298.001
298
298
298
298
298
298
298.008
298.001
298
298
298
298
298
298
298.009
298.001
298
298
298
298
298
298
298.01
298.001
298
298
298
298
298
298
298.01
298.001
298
298
298
298
298
298
298.011
298.001
298
298
298
298
298
298
298.011
298.001
298
298
298
298
298
298
298.011
298.001
298
298
298
298
298
298
298.011
298.001
298
298
298
298
298
298
298.011
298.001
298
298
298
298
298
298
298.011
298.001
298
298
298
298
298
298
298.01
298.001
298
298
298
298
298
298
298.01
298.001
298
298
298
298
298
298
298.009
298.001
298
298
298
298
298
298
298.008
298.001
298
298
298
298
298
298
298.007
298.001
298
298
298
298
298
298
298.007
298.001
298
298
298
298
298
298
298.007
298.001
298
298
298
298
298
298
)
;

boundaryField
{
    coupledWall_top
    {
        type            zeroGradient;
    }
    region0_to_pyrolysisRegion_coupledWall
    {
        type            filmPyrolysisRadiativeCoupledMixed;
        refValue        nonuniform List<scalar> 
400
(
678.178
1236.68
1380.31
1311.36
1208.4
1073.55
1100.89
1088.11
1046.89
1054.34
1054.49
1047.37
1088.28
1100.9
1073.54
1208.39
1311.36
1380.32
1236.76
678.384
465.53
869.67
1428.68
1593.14
1561.89
1425.12
1289.41
1339.34
1321.75
1287.67
1287.74
1321.84
1339.39
1289.41
1425.09
1561.87
1593.16
1428.75
869.664
465.535
309.623
369.36
565.756
1182.18
1652.16
1585.97
1468.94
1403.07
1396.54
1393.05
1392.98
1396.39
1403.08
1468.92
1585.93
1652.2
1182.46
565.847
369.374
309.624
298.249
301.415
323.106
456.381
975.887
1584.72
1544.44
1498.47
1448.02
1422.53
1422.4
1447.88
1498.42
1544.43
1584.75
976.06
456.439
323.115
301.415
298.249
298.08
298.299
300.758
319.061
429.348
1002.77
1531.52
1541.33
1515.15
1460.67
1460.5
1514.73
1541.27
1531.53
1002.78
429.364
319.066
300.759
298.299
298.08
298.115
298.409
299.596
305.866
331.892
497.843
1234.51
1537.5
1553.31
1484.5
1484.28
1552.79
1537.45
1234.36
497.806
331.889
305.864
299.595
298.409
298.115
298.448
299.415
301.987
313.232
334.208
392.231
719.437
1433.67
1558.49
1521.37
1521.18
1558.03
1433.56
719.246
392.208
334.202
313.227
301.986
299.415
298.448
300.167
304.67
315.727
356.954
386.898
410.769
573.131
1164.76
1535.53
1534.49
1534.29
1535.09
1164.44
573.001
410.75
386.894
356.935
315.729
304.678
300.165
303.322
321.871
392.851
492.218
480.39
486.421
593.034
1104.69
1534.5
1555
1554.86
1534.16
1104.44
592.936
486.4
480.399
492.223
392.851
321.891
303.321
314.985
390.268
643.388
719.552
647.965
561.14
658.692
1150.27
1554.06
1562.61
1562.5
1553.81
1150.15
658.597
561.153
648.026
719.605
643.392
390.299
314.983
350.629
597.425
1069.94
950.481
757.113
659.236
764.515
1253.38
1578.08
1567.15
1567.04
1577.88
1253.41
764.528
659.291
757.169
950.532
1069.99
597.405
350.629
394.345
786.666
1247.55
1088.18
892.587
841.137
1004.54
1456.06
1594.68
1567.38
1567.32
1594.51
1456.26
1004.72
841.253
892.668
1088.27
1247.52
786.619
394.367
466.071
765.015
1180.57
1344.15
1275.29
1231.14
1360.51
1560.46
1588.99
1558.99
1558.98
1588.9
1560.5
1360.67
1231.24
1275.34
1344.14
1180.35
764.936
466.082
459.934
623.392
810.745
1169.43
1441.69
1583.22
1609.55
1620.86
1601.31
1572.04
1572.04
1601.27
1620.83
1609.55
1583.22
1441.64
1169.22
810.624
623.394
459.923
461.825
570.393
626.003
736.98
966.685
1213.52
1451.73
1584.69
1605.42
1593.98
1594
1605.39
1584.66
1451.7
1213.43
966.568
736.936
626.071
570.483
461.845
499.072
573.455
590.993
611.674
674.098
747.24
840.015
937.171
1034.01
1083
1082.97
1033.93
937.133
839.977
747.234
674.123
611.796
591.138
573.575
499.088
507.535
580.543
594.986
601.423
628.562
647.002
674.146
701.68
730.52
746.332
746.311
730.516
701.685
674.167
647.078
628.723
601.597
595.155
580.675
507.525
347.564
363.48
363.965
365.088
370.317
372.875
374.589
375.519
377.988
379.133
379.13
377.982
375.526
374.604
372.894
370.345
365.118
363.989
363.502
347.554
298.055
298.058
298.059
298.062
298.066
298.072
298.075
298.077
298.079
298.081
298.081
298.079
298.077
298.075
298.072
298.066
298.062
298.059
298.058
298.055
298.029
298.031
298.032
298.036
298.038
298.043
298.045
298.047
298.048
298.049
298.049
298.048
298.047
298.045
298.043
298.038
298.036
298.032
298.031
298.029
)
;
        refGradient     uniform 0;
        valueFraction   nonuniform List<scalar> 
400
(
0.00508421
0.0100341
0.011015
0.0102039
0.00878015
0.0077649
0.00797869
0.0088972
0.00922629
0.00915981
0.00915952
0.00922455
0.0088966
0.00797915
0.00776472
0.00877934
0.0102036
0.0110151
0.0100343
0.00508403
0.00370777
0.00633855
0.00839849
0.0112182
0.0141445
0.0143044
0.0134552
0.0130301
0.0129958
0.0130815
0.0130814
0.012996
0.01303
0.0134544
0.0143038
0.0141449
0.0112189
0.00839863
0.006338
0.00370746
0.00260187
0.00316645
0.00471603
0.00852201
0.0136197
0.0178155
0.0181438
0.0172935
0.0165287
0.0160773
0.0160778
0.0165292
0.0172926
0.0181431
0.0178161
0.0136206
0.00852226
0.00471605
0.00316689
0.00260214
0.00161415
0.00233703
0.0036081
0.00563553
0.00868594
0.016101
0.0207714
0.0209128
0.0198492
0.0190812
0.0190815
0.0198485
0.020912
0.0207715
0.0161012
0.0086862
0.00563617
0.00360888
0.00233697
0.00161371
0.00361499
0.00363851
0.00409443
0.00520112
0.00715382
0.0117981
0.0204571
0.0238964
0.0232118
0.0218656
0.0218658
0.023211
0.0238955
0.0204561
0.011797
0.00715436
0.00520131
0.00409394
0.00363806
0.00361441
0.00562853
0.00548529
0.00580788
0.00640002
0.00759289
0.00982774
0.0177561
0.0254619
0.0266341
0.0249563
0.0249564
0.0266346
0.0254599
0.0177535
0.00982804
0.00759347
0.00639983
0.00580749
0.00548496
0.00562818
0.00740668
0.00724991
0.00764338
0.00835805
0.00932454
0.0105683
0.0153014
0.0242306
0.0294618
0.0285049
0.0285057
0.029463
0.0242271
0.0152992
0.0105696
0.00932496
0.00835783
0.00764276
0.0072495
0.00740642
0.00875953
0.00876624
0.00948448
0.0103154
0.0115371
0.0128773
0.0158494
0.0236368
0.0313756
0.0322812
0.0322829
0.0313746
0.0236337
0.0158479
0.012878
0.0115373
0.0103152
0.00948336
0.00876559
0.00875924
0.00932313
0.00996809
0.0107406
0.0113691
0.0134164
0.0156151
0.0182296
0.0252221
0.0334546
0.0358324
0.035833
0.0334524
0.025219
0.0182288
0.0156152
0.0134163
0.0113695
0.0107397
0.00996699
0.00932266
0.00872844
0.0101764
0.0105243
0.0119023
0.0156437
0.0177666
0.0200793
0.0269234
0.0355066
0.0385948
0.0385951
0.0355054
0.0269222
0.0200797
0.0177669
0.0156426
0.011901
0.0105228
0.0101746
0.00872752
0.00720701