/*--------------------------------*- C++ -*----------------------------------*\
  =========                 |
  \\      /  F ield         | OpenFOAM: The Open Source CFD Toolbox
   \\    /   O peration     | Website:  https://openfoam.org
    \\  /    A nd           | Version:  7
     \\/     M anipulation  |
\*---------------------------------------------------------------------------*/
FoamFile
{
    version     2.0;
    format      ascii;
    class       volScalarField;
    location    "1";
    object      a;
}
// * * * * * * * * * * * * * * * * * * * * * * * * * * * * * * * * * * * * * //

dimensions      [0 -1 0 0 0 0 0];

internalField   uniform 0.1;

boundaryField
{
    side
    {
        type            calculated;
        value           uniform 0.1;
    }
    outlet
    {
        type            calculated;
        value           uniform 0.1;
    }
    ground
    {
        type            calculated;
        value           uniform 0.1;
    }
    inlet
    {
        type            calculated;
        value           uniform 0.1;
    }
    region0_to_pyrolysisRegion_coupledWall
    {
        type            calculated;
        value           uniform 0.1;
    }
}


// ************************************************************************* //
