/*--------------------------------*- C++ -*----------------------------------*\
  =========                 |
  \\      /  F ield         | OpenFOAM: The Open Source CFD Toolbox
   \\    /   O peration     | Website:  https://openfoam.org
    \\  /    A nd           | Version:  7
     \\/     M anipulation  |
\*---------------------------------------------------------------------------*/
FoamFile
{
    version     2.0;
    format      ascii;
    class       volScalarField;
    location    "1";
    object      alphat;
}
// * * * * * * * * * * * * * * * * * * * * * * * * * * * * * * * * * * * * * //

dimensions      [1 -1 -1 0 0 0 0];

internalField   nonuniform List<scalar> 
4000
(
6.81225e-05
6.05513e-05
5.25836e-05
6.67809e-05
7.64006e-05
8.75378e-05
9.72914e-05
7.68035e-05
5.67238e-05
4.28306e-05
0.000123936
9.78926e-05
0.000170581
0.000167936
0.000202135
0.000300669
0.000199514
0.00011576
7.26999e-05
4.83013e-05
0.000200892
0.000185605
0.000279535
0.000297726
0.000380941
0.000431691
0.000224911
0.000127322
7.87035e-05
5.06222e-05
0.000362582
0.00031512
0.000421225
0.000501789
0.000705501
0.000427788
0.000228004
0.000134268
8.39995e-05
5.33976e-05
0.000605484
0.000369392
0.000538505
0.000709127
0.000840144
0.000404961
0.000228658
0.00014231
9.0044e-05
5.63794e-05
0.000799095
0.000325382
0.000733771
0.00101993
0.00078181
0.000384536
0.000232794
0.000150756
9.65606e-05
5.91643e-05
0.000663496
0.000350301
0.000977579
0.00119166
0.000627017
0.000374214
0.000241538
0.000158792
0.000102653
6.15977e-05
0.000681666
0.000409069
0.00112861
0.00109507
0.000547546
0.000374282
0.000248978
0.000165966
0.000107667
6.35782e-05
0.000714786
0.00041438
0.00110131
0.000782382
0.000521474
0.000385279
0.00025545
0.000170996
0.000111288
6.49358e-05
0.000643289
0.000408166
0.000992401
0.000642391
0.000563352
0.000373592
0.000260544
0.00017316
0.000113243
6.55913e-05
0.000642602
0.000408289
0.000992378
0.000642391
0.000563362
0.000373592
0.000260545
0.00017316
0.000113243
6.55913e-05
0.000713859
0.000414341
0.00110131
0.000782368
0.00052148
0.000385278
0.00025545
0.000170996
0.000111288
6.49357e-05
0.000681385
0.000409058
0.00112859
0.00109505
0.000547548
0.000374285
0.000248978
0.000165966
0.000107667
6.35781e-05
0.000663469
0.000350303
0.000977579
0.00119165
0.000627028
0.000374219
0.000241538
0.000158792
0.000102653
6.15975e-05
0.000799062
0.000325366
0.000733763
0.00101993
0.0007818
0.000384538
0.000232795
0.000150756
9.65603e-05
5.91641e-05
0.000605505
0.000369375
0.000538491
0.000709099
0.000840122
0.000404961
0.000228658
0.00014231
9.0044e-05
5.63792e-05
0.000362618
0.000315139
0.00042122
0.000501761
0.000705488
0.00042778
0.000228002
0.000134268
8.39992e-05
5.33972e-05
0.000200908
0.000185621
0.000279553
0.00029772
0.000380931
0.00043168
0.000224907
0.00012732
7.87027e-05
5.06218e-05
0.000123935
9.78979e-05
0.000170582
0.000167933
0.000202129
0.000300659
0.000199509
0.000115757
7.26988e-05
4.83006e-05
6.80951e-05
6.05353e-05
5.25822e-05
6.67791e-05
7.6399e-05
8.75352e-05
9.72828e-05
7.6799e-05
5.67215e-05
4.2829e-05
0.000122845
0.000207884
9.89619e-05
2.97093e-05
3.04528e-05
3.78804e-05
5.60953e-05
6.90893e-05
5.46693e-05
4.04061e-05
0.000150443
0.000136088
0.000117064
3.98603e-05
5.34526e-05
0.000113816
0.000157093
0.000108586
7.12005e-05
4.64327e-05
0.000144179
0.000116451
0.000119178
6.07677e-05
0.00012514
0.00025357
0.000188403
0.000111026
7.21508e-05
4.63412e-05
0.000239681
0.000170453
0.000142443
0.000114587
0.00027417
0.000321935
0.000186596
0.00010715
7.06669e-05
4.48656e-05
0.000436531
0.000267648
0.000215781
0.000243177
0.000555225
0.00032368
0.000170878
0.000104465
6.85121e-05
4.20879e-05
0.000729543
0.000356152
0.000315702
0.000428837
0.000661543
0.000314403
0.000157944
0.000103583
6.602e-05
3.83699e-05
0.000750768
0.000298387
0.000487392
0.000727749
0.000636873
0.00028836
0.000157829
0.000101429
6.31361e-05
3.54239e-05
0.000620547
0.000335652
0.000791993
0.00103519
0.000553985
0.000270619
0.000163196
9.90384e-05
6.04672e-05
3.33376e-05
0.000593116
0.000405531
0.000937353
0.000994635
0.000487755
0.000267145
0.000163663
9.85554e-05
5.79989e-05
3.19201e-05
0.000587125
0.000438173
0.00109973
0.000732052
0.00046028
0.000265867
0.000161976
9.91539e-05
5.64535e-05
3.12272e-05
0.000587023
0.000438207
0.00109972
0.000732002
0.000460278
0.000265868
0.000161977
9.91543e-05
5.64536e-05
3.12272e-05
0.00059282
0.000405513
0.000937369
0.000994583
0.000487749
0.000267147
0.000163664
9.85565e-05
5.79994e-05
3.19202e-05
0.000620387
0.000335645
0.000792027
0.0010352
0.000554023
0.000270622
0.000163199
9.90399e-05
6.0468e-05
3.33378e-05
0.000750743
0.000298376
0.000487415
0.000727775
0.00063709
0.000288373
0.000157834
0.000101431
6.31371e-05
3.54242e-05
0.000729557
0.00035614
0.000315711
0.0004288
0.000661047
0.000314417
0.00015795
0.000103585
6.60211e-05
3.83703e-05
0.00043658
0.000267657
0.000215782
0.000243168
0.000555444
0.000323682
0.000170885
0.000104468
6.85133e-05
4.20884e-05
0.000239716
0.000170463
0.000142446
0.000114574
0.000274151
0.000321936
0.000186601
0.000107153
7.06682e-05
4.4866e-05
0.000144179
0.000116458
0.000119181
6.07668e-05
0.000125128
0.000253556
0.000188406
0.000111029
7.21518e-05
4.63414e-05
0.000150424
0.000136096
0.000117074
3.98625e-05
5.3449e-05
0.000113808
0.000157085
0.000108587
7.12013e-05
4.64326e-05
0.000122806
0.000207848
9.89583e-05
2.97099e-05
3.04524e-05
3.78789e-05
5.60892e-05
6.90852e-05
5.4668e-05
4.04048e-05
0.000166557
0.000180913
7.96412e-05
3.32598e-05
3.17982e-05
3.81266e-05
6.19097e-05
0.00011313
8.89272e-05
4.57877e-05
0.000264444
0.000248488
0.000136695
5.21837e-05
4.84543e-05
9.81045e-05
0.000181785
0.000192171
0.000120459
5.84276e-05
0.000270425
0.000224581
0.000175716
8.12057e-05
8.77936e-05
0.000213183
0.000282453
0.000194497
0.000115844
5.74796e-05
0.000252999
0.000200806
0.000186547
0.000113532
0.000172587
0.000336627
0.000292792
0.000177152
0.000109025
5.65927e-05
0.000389368
0.000255053
0.000221567
0.000161839
0.000352079
0.000382475
0.0002742
0.000160618
0.000106677
5.34916e-05
0.000709939
0.000338482
0.000261703
0.000238186
0.000601562
0.000392823
0.000237865
0.000155392
0.000103535
4.93075e-05
0.00089082
0.000321306
0.000343258
0.000398367
0.000693818
0.000383758
0.000218848
0.00015191
0.000100923
4.53977e-05
0.000761035
0.000312873
0.000559284
0.000720797
0.000697558
0.000357651
0.000214124
0.000146441
9.85026e-05
4.18645e-05
0.000649704
0.000404634
0.000871454
0.00115177
0.00062216
0.00034199
0.000211392
0.000144631
9.44648e-05
3.93769e-05
0.000607796
0.000553463
0.00127941
0.00100688
0.000578019
0.000338262
0.000206997
0.000146176
9.10921e-05
3.81261e-05
0.000607899
0.000553484
0.00127948
0.00100686
0.000578008
0.000338256
0.000206996
0.000146177
9.10923e-05
3.81263e-05
0.000649615
0.000404627
0.000871559
0.00115186
0.000622108
0.000341982
0.000211393
0.000144633
9.44663e-05
3.93774e-05
0.000761263
0.00031285
0.000559369
0.000720915
0.000697478
0.000357647
0.000214125
0.000146443
9.85054e-05
4.18653e-05
0.000890818
0.000321295
0.000343263
0.000398404
0.000693811
0.000383763
0.000218851
0.000151913
0.000100927
4.53989e-05
0.000710052
0.000338485
0.000261708
0.000238196
0.000601622
0.000392837
0.000237873
0.000155396
0.000103539
4.93089e-05
0.000389439
0.000255071
0.000221588
0.000161844
0.000352091
0.000382486
0.000274216
0.000160626
0.000106681
5.34938e-05
0.000252966
0.000200789
0.000186551
0.000113534
0.000172574
0.000336621
0.000292804
0.000177162
0.00010903
5.65954e-05
0.000270347
0.00022455
0.000175719
8.12121e-05
8.77847e-05
0.000213157
0.000282456
0.000194507
0.00011585
5.74825e-05
0.000264426
0.000248496
0.000136733
5.21929e-05
4.84527e-05
9.80945e-05
0.000181769
0.000192177
0.000120467
5.84308e-05
0.000166577
0.000180918
7.96494e-05
3.32623e-05
3.1798e-05
3.81248e-05
6.19036e-05
0.000113122
8.89302e-05
4.57892e-05
0.00016417
0.000110627
6.19932e-05
4.07107e-05
3.5736e-05
3.76713e-05
5.83563e-05
0.00011555
0.000183625
9.11494e-05
0.00033767
0.000220053
0.000114694
6.14802e-05
5.3778e-05
7.89341e-05
0.000156604
0.000303062
0.000241718
0.000113049
0.000512127
0.000354375
0.000184854
9.15782e-05
8.25672e-05
0.000167099
0.000326264
0.000343888
0.000221471
0.000100616
0.000533139
0.000406797
0.000256503
0.000133588
0.000143968
0.000329964
0.000437106
0.000321761
0.000192386
9.68141e-05
0.000464286
0.000378004
0.000295154
0.000183293
0.000281541
0.000433648
0.000440605
0.00027654
0.000183355
9.01793e-05
0.000652134
0.000448743
0.00035133
0.000259243
0.000556671
0.000517447
0.000401309
0.000252186
0.000178676
7.96803e-05
0.00105506
0.000416846
0.000402758
0.000350546
0.000687507
0.000573896
0.00035717
0.000238488
0.000174188
7.06133e-05
0.000958356
0.000355441
0.000453904
0.000533433
0.000749975
0.000554933
0.000336837
0.000229635
0.000169113
6.34778e-05
0.000772048
0.000411173
0.000713871
0.000947333
0.000908766
0.000540704
0.00033048
0.000226219
0.000162061
5.74026e-05
0.000695008
0.000623306
0.00141444
0.00146773
0.000864775
0.000559548
0.000330823
0.000224377
0.000157393
5.46115e-05
0.000695176
0.000623392
0.00141494
0.00146795
0.000864821
0.000559559
0.000330821
0.000224376
0.000157394
5.46118e-05
0.000771993
0.000411145
0.000714055
0.000947594
0.000908789
0.000540683
0.000330476
0.00022622
0.000162064
5.7404e-05
0.000957632
0.000355399
0.000453899
0.000533554
0.000749976
0.000554889
0.000336832
0.000229636
0.000169119
6.34802e-05
0.00105514
0.000416843
0.000402751
0.000350612
0.000687543
0.000573875
0.000357163
0.000238491
0.000174196
7.06172e-05
0.000652251
0.000448778
0.000351349
0.000259292
0.000556759
0.000517461
0.000401315
0.000252191
0.000178685
7.96856e-05
0.000464268
0.000377976
0.000295205
0.00018332
0.000281572
0.000433657
0.000440625
0.000276554
0.000183367
9.01877e-05
0.000533075
0.000406828
0.000256542
0.000133599
0.000143971
0.000329943
0.000437123
0.000321787
0.000192402
9.68259e-05
0.000512215
0.000354457
0.000184887
9.1591e-05
8.25632e-05
0.000167081
0.00032626
0.00034391
0.000221494
0.000100631
0.000337756
0.000220109
0.000114722
6.14935e-05
5.37802e-05
7.89276e-05
0.00015659
0.000303067
0.000241744
0.000113068
0.000164201
0.000110649
6.20105e-05
4.07194e-05
3.57389e-05
3.76702e-05
5.83493e-05
0.000115534
0.000183637
9.1168e-05
0.000150817
7.44818e-05
5.4213e-05
4.23673e-05
3.77075e-05
3.68078e-05
4.52093e-05
8.65759e-05
0.000255802
0.000226542
0.000345638
0.000159692
9.76088e-05
6.46802e-05
5.43653e-05
6.41225e-05
0.000115222
0.000282636
0.000398343
0.000234573
0.000576891
0.000281273
0.000152195
9.18396e-05
8.06788e-05
0.000126622
0.000254419
0.000475766
0.000393024
0.000186057
0.000871326
0.000500049
0.000252218
0.000137403
0.0001344
0.000264812
0.000473779
0.000487665
0.000328223
0.00017349
0.000949731
0.000650359
0.000379976
0.000213262
0.000249021
0.000487572
0.000564473
0.000453101
0.000293852
0.0001615
0.000770739
0.000670645
0.000512104
0.000306994
0.000515259
0.000601898
0.000575683
0.000399767
0.000273097
0.000141455
0.001043
0.000647673
0.00058
0.000430444
0.000709512
0.000672305
0.00055172
0.000370336
0.000256145
0.000123494
0.00123532
0.000524469
0.000537535
0.000533858
0.00075798
0.000745232
0.000518489
0.000355627
0.000238703
0.000106902
0.000959873
0.000458344
0.000634968
0.000855284
0.000950137
0.000818004
0.000519353
0.000349401
0.000220863
9.01093e-05
0.000793656
0.000686193
0.00139905
0.00173015
0.0012635
0.000823404
0.000545812
0.000347553
0.000213498
8.56991e-05
0.000793808
0.000686229
0.00139928
0.00173037
0.00126349
0.000823384
0.000545813
0.000347551
0.000213498
8.56999e-05
0.000960002
0.00045834
0.000635007
0.00085544
0.000950238
0.000818002
0.000519333
0.000349397
0.000220865
9.01119e-05
0.00123551
0.000524433
0.000537468
0.000533922
0.0007581
0.00074528
0.000518452
0.000355619
0.000238707
0.000106906
0.00104304
0.000647633
0.000579843
0.0004305
0.000709712
0.00067236
0.000551689
0.000370326
0.000256154
0.000123504
0.000770709
0.000670599
0.000512072
0.000307056
0.000515504
0.000601965
0.000575678
0.000399765
0.000273108
0.000141467
0.000949639
0.000650383
0.00038004
0.000213302
0.000249077
0.000487597
0.0005645
0.000453125
0.000293872
0.000161518
0.000871425
0.000500158
0.000252266
0.000137422
0.000134391
0.000264811
0.000473806
0.000487702
0.000328263
0.000173516
0.000576887
0.000281309
0.000152219
9.1847e-05
8.06741e-05
0.000126614
0.000254426
0.000475793
0.000393073
0.000186095
0.000345647
0.000159713
9.76274e-05
6.46909e-05
5.43675e-05
6.41207e-05
0.000115215
0.000282635
0.000398379
0.000234628
0.000150836
7.44977e-05
5.42287e-05
4.23755e-05
3.77117e-05
3.6808e-05
4.52056e-05
8.65659e-05
0.000255807
0.000226595
0.000146861
5.69488e-05
4.59663e-05
3.79072e-05
3.57364e-05
3.43848e-05
3.75151e-05
6.76625e-05
0.000265589
0.000407096
0.000349161
0.000122494
8.46876e-05
6.07481e-05
5.19681e-05
5.54564e-05
9.15035e-05
0.000228312
0.00051238
0.000354902
0.000589543
0.000211115
0.000131845
9.50267e-05
8.62414e-05
0.000113162
0.000227626
0.000510566
0.0005387
0.00027405
0.000939352
0.00041571
0.000246309
0.000160963
0.00016198
0.000243195
0.000500605
0.000595209
0.000476046
0.000239264
0.00130462
0.000730639
0.000489212
0.000286239
0.000292461
0.000483336
0.000662873
0.000577499
0.000419254
0.000217794
0.00140079
0.00105663
0.000676122
0.000446427
0.000535033
0.000715025
0.000674342
0.000554796
0.000378164
0.000178586
0.00111693
0.00104056
0.000930085
0.00056779
0.000765505
0.000766292
0.00068782
0.0005301
0.000347832
0.000153339
0.00146232
0.000687137
0.000706231
0.00063931
0.000824803
0.000831099
0.000717855
0.000504007
0.00032856
0.000129267
0.00129822
0.000545457
0.000768288
0.000874639
0.000969074
0.000935391
0.000746872
0.000504852
0.000307895
0.000104624
0.000960892
0.000758128
0.00139334
0.00185191
0.00152684
0.00113393
0.000797648
0.000520143
0.000303975
0.000100666
0.000961084
0.000758186
0.00139334
0.00185197
0.00152694
0.00113399
0.000797646
0.000520143
0.000303973
0.000100667
0.00129869
0.000545412
0.000768265
0.000874702
0.000969206
0.000935455
0.000746872
0.000504855
0.00030789
0.000104623
0.00146224
0.000687054
0.000706142
0.000639338
0.000824931
0.00083115
0.000717857
0.000503999
0.000328554
0.000129263
0.00111688
0.00104035
0.000929907
0.000567838
0.000765701
0.000766343
0.000687848
0.000530084
0.000347829
0.000153342
0.00140066
0.00105664
0.000676181
0.000446505
0.000535062
0.000715113
0.000674397
0.000554801
0.000378164
0.00017859
0.00130458
0.000730746
0.000489351
0.000286303
0.000292523
0.000483423
0.000662948
0.00057754
0.000419277
0.000217806
0.00093923
0.000415747
0.000246353
0.000160987
0.000161984
0.000243233
0.000500686
0.000595244
0.000476103
0.000239288
0.000589454
0.000211093
0.000131845
9.50284e-05
8.62396e-05
0.000113166
0.000227655
0.000510602
0.00053875
0.000274102
0.000349138
0.000122496
8.46922e-05
6.07522e-05
5.19678e-05
5.54561e-05
9.15051e-05
0.000228318
0.000512414
0.000354975
0.000146862
5.69551e-05
4.59771e-05
3.79125e-05
3.57397e-05
3.43856e-05
3.75132e-05
6.76532e-05
0.000265579
0.000407174
0.000153617
4.41983e-05
3.77074e-05
3.46546e-05
3.259e-05
3.1348e-05
3.45062e-05
7.27075e-05
0.000335135
0.000580178
0.000380985
9.7444e-05
7.35651e-05
5.87188e-05
5.26979e-05
7.00034e-05
0.000101123
0.000261069
0.000620323
0.000429617
0.000659663
0.000194846
0.000142859
0.000126832
0.000118404
0.00017233
0.0002667
0.00059832
0.000632707
0.000314695
0.0010085
0.000372812
0.000273981
0.000266022
0.000254344
0.000340952
0.000582619
0.000690068
0.000544349
0.000262606
0.00141061
0.000668942
0.000568602
0.000494488
0.000450529
0.000578611
0.00079136
0.000637789
0.000491072
0.000233011
0.00182244
0.0010935
0.000785013
0.000685846
0.000703925
0.000879308
0.000752264
0.000621116
0.000455947
0.000197907
0.00163544
0.00155687
0.00107477
0.000773082
0.000840711
0.000947345
0.000742273
0.000626363
0.000425377
0.000162432
0.0015276
0.00101763
0.00101073
0.000839016
0.000909177
0.000929988
0.000781937
0.000646876
0.000398945
0.000134461
0.00161397
0.000733832
0.000818269
0.000940583
0.00104593
0.00099533
0.00084999
0.00066703
0.000387912
0.000121965
0.00126474
0.000795928
0.00133894
0.00184381
0.00164896
0.00129374
0.000962177
0.000701768
0.00039189
0.00011447
0.00126501
0.000795883
0.00133877
0.00184367
0.00164889
0.00129375
0.000962204
0.000701755
0.000391886
0.000114469
0.00161437
0.000733796
0.000818247
0.000940555
0.00104581
0.000995333
0.000850014
0.000666997
0.000387899
0.000121959
0.00152734
0.00101748
0.00101055
0.00083891
0.000909175
0.000929931
0.000781938
0.000646845
0.000398934
0.000134448
0.00163543
0.00155677
0.00107469
0.000773075
0.000840699
0.000947448
0.00074229
0.000626351
0.000425366
0.000162423
0.00182233
0.00109356
0.000785072
0.000685905
0.00070387
0.000879454
0.000752312
0.000621158
0.00045594
0.000197902
0.00141052
0.00066902
0.000568698
0.00049455
0.00045066
0.000578694
0.000791407
0.000637822
0.000491095
0.00023301
0.00100828
0.000372783
0.000273982
0.000266069
0.000254401
0.000341015
0.000582716
0.000690105
0.000544401
0.000262609
0.000659502
0.000194796
0.000142836
0.000126841
0.000118421
0.000172355
0.000266735
0.000598356
0.000632746
0.000314718
0.000380916
9.74232e-05
7.35553e-05
5.87174e-05
5.26965e-05
7.00068e-05
0.000101127
0.000261076
0.000620352
0.000429689
0.000153604
4.41967e-05
3.77087e-05
3.46557e-05
3.25913e-05
3.13483e-05
3.45052e-05
7.27025e-05
0.000335116
0.000580239
0.000162654
3.63259e-05
3.30454e-05
3.06464e-05
3.00704e-05
3.31058e-05
4.35251e-05
0.000131514
0.00065313
0.000706185
0.00045556
0.0001312
0.000112765
8.44583e-05
8.31306e-05
0.000139719
0.000192121
0.000431828
0.000763559
0.0004525
0.000850234
0.000316766
0.000284154
0.000209992
0.000215465
0.000363731
0.000460022
0.000819374
0.000656859
0.000300144
0.00124815
0.000549238
0.000513121
0.000423335
0.000442238
0.000734921
0.00081474
0.00079528
0.000505461
0.000266382
0.00160277
0.000795744
0.000833151
0.000735465
0.000725457
0.000884306
0.000929881
0.000677453
0.000455488
0.000219272
0.00195636
0.00109631
0.000936612
0.000920705
0.000979112
0.000981402
0.000827704
0.000606087
0.000445902
0.000206503
0.00215007
0.00159017
0.00114953
0.00099811
0.00102923
0.000997634
0.000761056
0.000607004
0.000434454
0.000192962
0.0018173
0.0016215
0.00143989
0.00107294
0.00104943
0.000972702
0.000768776
0.000649446
0.000423793
0.000184137
0.00183919
0.000884507
0.000948608
0.00110807
0.00113559
0.00103116
0.000852458
0.000676275
0.000424715
0.000156267
0.00157769
0.000814268
0.00131748
0.00182086
0.00170933
0.0013552
0.00105043
0.000735757
0.000448722
0.000149939
0.00157811
0.000814232
0.00131729
0.0018205
0.00170914
0.00135515
0.00105042
0.00073577
0.00044872
0.000149937
0.00183957
0.000884466
0.000948471
0.00110793
0.00113562
0.00103122
0.000852492
0.000676274
0.000424711
0.000156256
0.00181718
0.00162145
0.00143957
0.00107292
0.00104947
0.00097291
0.000768841
0.000649472
0.000423782
0.000184117
0.00214998
0.00158996
0.00114936
0.000998119
0.00102926
0.000997713
0.00076112
0.000607049
0.000434459
0.000192948
0.00195621
0.00109622
0.00093658
0.000920645
0.000979179
0.000981419
0.000827768
0.000606121
0.000445897
0.000206502
0.00160256
0.000795573
0.000833099
0.000735469
0.000725493
0.000884341
0.000929939
0.000677501
0.000455499
0.000219267
0.00124765
0.000548992
0.000513027
0.000423375
0.00044228
0.00073501
0.0008148
0.000795304
0.000505496
0.000266367
0.000850044
0.000316593
0.000284083
0.000210019
0.000215492
0.000363803
0.000460112
0.000819412
0.000656882
0.00030013
0.000455427
0.000131128
0.000112734
8.44633e-05
8.31357e-05
0.000139739
0.000192157
0.000431896
0.000763596
0.000452551
0.000162641
3.63216e-05
3.30437e-05
3.06456e-05
3.00701e-05
3.31074e-05
4.35303e-05
0.000131543
0.000653181
0.000706209
0.000200809
5.53386e-05
4.7693e-05
5.67475e-05
3.95188e-05
4.76494e-05
0.00011045
0.000334305
0.00103736
0.000741886
0.000636214
0.000289106
0.000231543
0.000258961
0.000180202
0.000201733
0.000429075
0.000837989
0.000766908
0.000466935
0.00107179
0.00060947
0.000537233
0.000578447
0.000441437
0.000457615
0.000853866
0.000928781
0.000524011
0.000304766
0.00138336
0.000840991
0.000775084
0.000818564
0.000676424
0.000803843
0.000980049
0.00074409
0.000394305
0.000264874
0.00200563
0.00118974
0.0012079
0.00104365
0.000984145
0.00102158
0.000899659
0.000571911
0.000386703
0.000250454
0.00216158
0.00124424
0.00125193
0.00108459
0.00103234
0.00104828
0.000764862
0.000522165
0.000391308
0.0002345
0.00227502
0.00154636
0.0013339
0.000978324
0.00107065
0.0010061
0.000672269
0.000534177
0.000405946
0.000251167
0.00202955
0.00199221
0.00160152
0.00109037
0.000939725
0.000972268
0.000712555
0.000580764
0.000419248
0.000249402
0.00201022
0.00103193
0.00107844
0.00115708
0.00108503
0.00102478
0.000864448
0.000676528
0.000449453
0.000201312
0.00183574
0.000835637
0.00132082
0.00170447
0.00164053
0.00135623
0.00112361
0.000818951
0.00049371
0.00020344
0.00183599
0.000835636
0.00132069
0.00170432
0.00164048
0.00135623
0.00112359
0.000818937
0.000493699
0.000203435
0.00201036
0.0010319
0.00107833
0.0011568
0.00108508
0.00102475
0.000864444
0.00067656
0.000449395
0.000201301
0.00202928
0.00199195
0.00160104
0.00109018
0.000939739
0.000972152
0.000712596
0.000580753
0.000419255
0.000249385
0.00227487
0.0015461
0.00133371
0.000978311
0.00107076
0.00100629
0.000672357
0.000534173
0.000405973
0.000251157
0.00216146
0.00124408
0.00125188
0.00108469
0.00103245
0.00104851
0.000764961
0.000522183
0.000391334
0.000234509
0.00200536
0.00118955
0.0012077
0.00104368
0.000984219
0.0010218
0.000899721
0.000571945
0.000386709
0.000250448
0.00138292
0.000840651
0.000774846
0.000818469
0.000676559
0.000803872
0.000980075
0.000744141
0.000394325
0.000264864
0.00107161
0.000609343
0.000537116
0.000578387
0.000441553
0.000457637
0.000853995
0.000928835
0.000524091
0.000304749
0.000636072
0.000289014
0.000231514
0.000258928
0.000180257
0.000201754
0.000429153
0.000838158
0.000767026
0.000466937
0.000200803
5.53265e-05
4.76954e-05
5.67303e-05
3.95318e-05
4.76479e-05
0.000110472
0.000334424
0.00103749
0.000741866
0.000337885
0.000152589
0.000138057
0.000166331
0.000151388
0.000196855
0.000252356
0.000884044
0.00107307
0.000828946
0.000977817
0.000597578
0.000472719
0.00055618
0.000449029
0.000569986
0.000760322
0.000973707
0.000745939
0.000509324
0.00110731
0.00086882
0.000840552
0.00103115
0.000855399
0.000938865
0.00101808
0.00074933
0.000453414
0.000304152
0.00163366
0.00119164
0.00100779
0.00111423
0.000929859
0.000892099
0.000906381
0.000552594
0.000333097
0.000270511
0.00190554
0.00140589
0.00133446
0.0011744
0.000982466
0.000955036
0.00077202
0.000438715
0.000348543
0.000311348
0.00223768
0.0014208
0.00143746
0.0011149
0.000967703
0.000927567
0.000623926
0.000436748
0.000373759
0.000309707
0.00238695
0.00148815
0.00117704
0.000939002
0.000915778
0.000848792
0.000583818
0.000514021
0.000392766
0.000245019
0.00216676
0.00209591
0.00167643
0.000977204
0.000874346
0.000865686
0.000655009
0.000585931
0.000431741
0.000251939
0.00227073
0.00115091
0.00118079
0.00101799
0.000973939
0.000967682
0.000902554
0.000690938
0.000466041
0.00033656
0.00220843
0.000856491
0.00133877
0.00156393
0.00156373
0.00131132
0.00114969
0.000873786
0.000511738
0.000345245
0.00220859
0.000856441
0.00133874
0.00156389
0.00156373
0.00131135
0.00114969
0.000873783
0.000511718
0.000345242
0.00227072
0.00115068
0.00118049
0.00101774
0.000973905
0.000967762
0.000902617
0.0006909
0.000465985
0.000336536
0.00216611
0.00209537
0.00167588
0.00097686
0.000874327
0.000865671
0.000655012
0.000585942
0.000431715
0.000251887
0.00238701
0.00148784
0.00117675
0.000938766
0.000915667
0.000848722
0.000583833
0.000514043
0.000392803
0.000244999
0.00223749
0.00142067
0.00143735
0.00111474
0.000967612
0.000927425
0.000624004
0.000436761
0.00037384
0.000309748
0.00190524
0.00140573
0.00133439
0.00117417
0.000982381
0.000954591
0.000772111
0.00043876
0.000348567
0.000311385
0.00163343
0.0011914
0.00100785
0.00111407
0.000930036
0.000891275
0.000906468
0.00055267
0.00033313
0.000270518
0.00110718
0.00086875
0.000840879
0.00103099
0.000855826
0.000938602
0.00101816
0.000749469
0.000453494
0.000304153
0.00097766
0.000597499
0.000472988
0.000556061
0.000449248
0.00057003
0.00076041
0.000973801
0.000746066
0.000509354
0.00033793
0.000152587
0.000138203
0.000166298
0.000151477
0.000196815
0.000252375
0.000884282
0.00107319
0.000828927
0.00071768
0.000413105
0.000604569
0.000286205
0.00080924
0.000776453
0.000761609
0.00123373
0.00121191
0.000854279
0.00125876
0.00100778
0.00106793
0.000755951
0.000933714
0.00105097
0.00108243
0.00089953
0.00066325
0.000516946
0.00132894
0.0011704
0.00120871
0.00119321
0.00107777
0.000878887
0.000849342
0.000573342
0.000354386
0.000340409
0.00160785
0.00137234
0.00124186
0.00109462
0.00094865
0.000821432
0.000688543
0.000387984
0.000300422
0.000353099
0.00186735
0.00127285
0.0012655
0.00110544
0.000919521
0.000763616
0.00056365
0.000358527
0.000327774
0.000341917
0.00219063
0.00114919
0.00113418
0.00103688
0.000837617
0.000688948
0.000497685
0.000422275
0.000358797
0.000266328
0.00239095
0.00130853
0.000972207
0.000845626
0.000737194
0.000668543
0.000512016
0.000486634
0.000397137
0.00037397
0.00230711
0.00209168
0.00155418
0.000788665
0.000761859
0.000727927
0.000640351
0.000567346
0.000448082
0.000372583
0.00248377
0.00127983
0.00131249
0.001049
0.000813386
0.000856868
0.000879844
0.000728768
0.000533764
0.000438329
0.00251892
0.00088308
0.00129094
0.00149244
0.00144703
0.00124106
0.0011303
0.000912459
0.000610427
0.000496438
0.00251908
0.000882943
0.00129092
0.00149252
0.00144715
0.00124115
0.00113035
0.000912464
0.000610413
0.000496391
0.00248392
0.0012795
0.00131219
0.0010488
0.000813335
0.000856908
0.000879918
0.000728649
0.000533663
0.000438305
0.00230699
0.00209131
0.00155389
0.000788313
0.000761692
0.000727945
0.000640319
0.000567298
0.000448016
0.000372568
0.00239109
0.00130837
0.000971865
0.000845173
0.000736834
0.000668453
0.000512021
0.00048661
0.000397124
0.000373955
0.00219046
0.00114904
0.0011339
0.00103645
0.000837068
0.000688875
0.000497716
0.000422303
0.000358852
0.000266273
0.00186716
0.00127258
0.00126522
0.00110519
0.00091901
0.000763976
0.000563676
0.000358557
0.000327833
0.000341965
0.00160764
0.00137213
0.00124167
0.00109445
0.000947756
0.000822693
0.000688641
0.000388044
0.000300353
0.000353172
0.00132873
0.00117035
0.00120852
0.0011934
0.00107545
0.00088062
0.000849627
0.000573486
0.000354573
0.000340471
0.00125886
0.00100789
0.00106798
0.000756424
0.000935223
0.00105044
0.0010827
0.000899779
0.000663425
0.000517016
0.000718012
0.000413051
0.000605273
0.000286629
0.000809287
0.000776441
0.000761566
0.00123406
0.00121223
0.000854369
0.0012524
0.00104762
0.00118132
0.000929735
0.00108246
0.00101711
0.00129874
0.00124456
0.00123562
0.000951405
0.00136133
0.00143737
0.00136423
0.0012179
0.00109383
0.00107791
0.000981448
0.000852647
0.000697051
0.000569238
0.00154119
0.00137444
0.00126516
0.00124123
0.00103306
0.000824102
0.000682382
0.000471213
0.000332828
0.000383556
0.00196514
0.00145312
0.00123305
0.00105766
0.000900255
0.000749729
0.000513367
0.000322526
0.000285388
0.000388817
0.00203288
0.00118013
0.00109938
0.000996098
0.000866699
0.000645524
0.000442202
0.000336631
0.00030704
0.00037247
0.0021575
0.00102683
0.000905306
0.000834449
0.00072792
0.000551328
0.000431643
0.000415815
0.000367356
0.000382679
0.00222585
0.00124972
0.000838937
0.000682591
0.000609529
0.000530092
0.000477365
0.000497825
0.000433916
0.000415388
0.00219844
0.00197261
0.00137336
0.000711371
0.000669145
0.000615337
0.000590304
0.000587711
0.00052157
0.000489999
0.00258045
0.00129762
0.00132235
0.000999193
0.000756014
0.000742743
0.000795933
0.000756809
0.000607939
0.00052821
0.00267999
0.000844955
0.00125875
0.001348
0.00128239
0.00112671
0.00105073
0.000926586
0.000696178
0.000564488
0.00268011
0.000844752
0.00125884
0.00134789
0.00128268
0.00112685
0.00105083
0.000926662
0.000696145
0.000564415
0.0025806
0.00129738
0.00132224
0.000999251
0.000755979
0.000742764
0.000795956
0.000756653
0.000607779
0.000528115
0.002198
0.00197233
0.00137311
0.000711058
0.000668884
0.000615278
0.000590265
0.000587579
0.00052144
0.000489881
0.00222569
0.00124992
0.00083874
0.000682281
0.000609239
0.000529999
0.000477332
0.000497761
0.000433826
0.000415252
0.00215723
0.00102674
0.000905051
0.000833956
0.000727489
0.000551201
0.000431591
0.000415766
0.000367336
0.000382637
0.00203261
0.00117994
0.00109901
0.000995756
0.000866361
0.000645335
0.000442174
0.000336616
0.000307053
0.000372513
0.00196485
0.00145293
0.00123276
0.00105744
0.000900025
0.000749529
0.000513321
0.000322538
0.000285416
0.000388908
0.00154111
0.00137435
0.00126509
0.00124091
0.00103273
0.000823864
0.000682472
0.000471362
0.000332878
0.000383547
0.00136131
0.0014375
0.00136404
0.00121789
0.00109367
0.0010777
0.000981509
0.000852845
0.000697287
0.000569289
0.00125285
0.00104767
0.00118176
0.000931263
0.00108308
0.00101766
0.00129902
0.00124482
0.00123615
0.000951718
0.00154858
0.00166309
0.00173929
0.00146904
0.00138286
0.00145695
0.00145611
0.00142367
0.00132314
0.00102509
0.00137691
0.00159651
0.0014751
0.00139003
0.00118314
0.00108253
0.000875549
0.000835368
0.000656478
0.000600122
0.00150011
0.00139223
0.00123318
0.00114261
0.000996659
0.000788996
0.000582367
0.00040859
0.000305529
0.000406036
0.00193277
0.00150106
0.00113762
0.0009715
0.000825107
0.000668781
0.000428019
0.000298494
0.000271252
0.000413793
0.00223504
0.00133368
0.000994889
0.00087885
0.000759158
0.000580237
0.000383323
0.000337872
0.000309211
0.000418315
0.00230814
0.00118656
0.000823484
0.00071839
0.000630187
0.000494536
0.000396158
0.00041333
0.00037848
0.000466149
0.0023263
0.00134933
0.000778813
0.000578554
0.000526189
0.00046075
0.000433359
0.00049533
0.000467034
0.000442464
0.00248209
0.00172279
0.00127114
0.000638011
0.000570582
0.000530947
0.000536076
0.000595703
0.000570633
0.000574423
0.00288533
0.0013198
0.00130189
0.000970706
0.000732906
0.000666114
0.000712195
0.000751437
0.000670879
0.000621616
0.00306201
0.000849796
0.00117939
0.00122656
0.00112832
0.000976678
0.000910891
0.00086872
0.000765756
0.000637398
0.00306195
0.000849604
0.00117957