/*--------------------------------*- C++ -*----------------------------------*\
  =========                 |
  \\      /  F ield         | OpenFOAM: The Open Source CFD Toolbox
   \\    /   O peration     | Website:  https://openfoam.org
    \\  /    A nd           | Version:  7
     \\/     M anipulation  |
\*---------------------------------------------------------------------------*/
FoamFile
{
    version     2.0;
    format      ascii;
    class       volScalarField;
    location    "1";
    object      G;
}
// * * * * * * * * * * * * * * * * * * * * * * * * * * * * * * * * * * * * * //

dimensions      [1 0 -3 0 0 0 0];

internalField   nonuniform List<scalar> 
4000
(
10037.3
9778.45
7450.6
6303.08
5471.22
4933.45
4676.85
4632.2
4723.66
4882.45
14618.3
13985.6
8768.02
6885.61
5844.19
5232.69
4939.08
4854.64
4891.28
4982.28
17968.3
16488.7
9844.95
7435.59
6219.56
5527.38
5174.93
5028.63
4992.93
5005.11
19236.8
17411.4
10554.1
7866.14
6532.1
5763.69
5342.57
5123.63
5008.83
4941.23
18888
17771.3
10915.7
8142.48
6746.14
5909.37
5422.71
5131.56
4941.3
4801.86
17828.7
17674.4
11018.3
8281.66
6859.4
5973.9
5431.38
5074.81
4817.89
4618.33
17328.9
17479.2
10996.5
8341.82
6913.12
6003.3
5414.46
4998.07
4681.43
4431.39
16956
17037.7
10927.2
8387.48
6967.78
6052.35
5421.43
4945.7
4571.68
4276.64
16409.3
16634.6
10887
8433.4
7046.77
6135.26
5465.68
4933.78
4507.21
4173.32
16274.2
16552.4
10965.3
8486.62
7119.95
6208.06
5511.41
4942.23
4481.85
4123.88
16275.2
16552.5
10965.3
8486.58
7120.01
6208.23
5511.68
4942.57
4482.24
4124.26
16412.9
16635.2
10887.2
8433.55
7047.07
6135.8
5466.44
4934.7
4508.21
4174.33
16957.5
17037.7
10927
8387.27
6967.91
6052.94
5422.47
4947.09
4573.27
4278.29
17329.6
17479.4
10996.3
8341.6
6913.21
6003.89
5415.59
4999.65
4683.34
4433.48
17828.6
17674.2
11017.9
8281.19
6859.22
5974.2
5432.24
5076.18
4819.65
4620.36
18888.2
17771.3
10915.4
8141.92
6745.7
5909.26
5423.06
5132.39
4942.56
4803.44
19237
17411.4
10553.7
7865.46
6531.38
5763.12
5342.29
5123.67
5009.19
4941.85
17968.8
16488.7
9844.55
7434.81
6218.61
5526.43
5174.09
5027.96
4992.41
5004.69
14619.1
13986
8767.67
6884.9
5843.23
5231.62
4937.98
4853.51
4890.08
4980.95
10037.6
9778.61
7450.33
6302.61
5470.55
4932.62
4675.87
4631.02
4722.18
4880.56
10629.2
10495.4
8063.53
6806.37
5835.37
5219.76
4937.71
4905.71
5037.99
5251.57
14065.2
13773.2
9286.23
7452.84
6251.65
5542.76
5212.86
5134.1
5204.97
5344.16
20067.2
19969.4
10919.7
8260.07
6758.16
5916.4
5502.69
5344.39
5327.46
5374.28
26837.1
26174.1
12531.4
9058.24
7259.89
6271.93
5752.93
5494.98
5376.51
5325.31
29972.7
27712.3
13448.8
9619.91
7641.51
6532.4
5910.51
5552.5
5336.55
5196.81
28924.1
27303.9
13792.8
9915.66
7855.88
6662.41
5956.02
5513.44
5217.98
5010
27062.4
26499.7
13786.5
10005.1
7929.68
6689.51
5920.96
5412.61
5057.93
4803.23
26041.9
24055.3
13464.8
9959.08
7943
6690.96
5873.89
5308.96
4906.62
4619.19
25026.8
21629.9
13090.7
9890.48
7971.37
6725.06
5864.99
5246.8
4802.08
4488.88
24347.2
20906.5
12980.2
9897.81
8025.11
6776
5883.28
5227.38
4753.88
4424.13
24346.9
20906.4
12980.1
9897.74
8025.19
6776.21
5883.58
5227.73
4754.23
4424.42
25026
21630
13090.7
9890.58
7971.74
6725.7
5865.82
5247.7
4802.94
4489.62
26041
24054.5
13464.2
9958.71
7943.13
6691.61
5874.97
5310.26
4907.95
4620.41
27061.8
26499.5
13786.1
10004.8
7929.77
6690.14
5922.09
5414.07
5059.54
4804.81
28922.9
27303.3
13792.2
9915.06
7855.65
6662.69
5956.79
5514.58
5219.32
5011.4
29972.4
27712.3
13448.4
9619.3
7641.02
6532.23
5910.72
5553.05
5337.34
5197.7
26837.4
26174.6
12531.1
9057.64
7259.23
6271.38
5752.54
5494.74
5376.37
5325.18
20068.1
19969.9
10919.5
8259.51
6757.41
5915.59
5501.84
5343.48
5326.42
5373.03
14065.2
13773.2
9286.07
7452.49
6251.09
5541.99
5211.86
5132.79
5203.27
5341.94
10628.9
10495.3
8063.49
6806.33
5835.18
5219.31
4936.89
4904.37
5035.98
5248.74
10555.1
10428
8565.79
7428.6
6443.28
5794.76
5489.75
5454.59
5607.5
5855.04
12755.3
12529.1
9550.08
8001.27
6822.92
6090.46
5739.34
5656.66
5745.74
5915.97
15902.9
15619.5
10830
8750.94
7330.41
6473.8
6035.36
5865.85
5858.7
5928.69
21039.1
20749.6
12479.9
9649.14
7918.72
6896.86
6334.35
6047.32
5922.27
5880.6
30704.2
29131.5
14540.1
10619
8498.74
7278.95
6572.74
6157.93
5913.62
5766.79
34162.3
33674.3
16065.1
11340
8919.6
7528.63
6693.95
6168.23
5826.08
5598.28
33666.7
34698.4
16613.1
11689.2
9120.65
7618.77
6691.77
6087.06
5679.92
5403.25
32679.6
32394.8
16381.8
11726.1
9164.64
7615.51
6627.22
5967.84
5521.07
5220.79
31238.9
27003.4
15624.8
11573.1
9156.66
7610.42
6578.68
5874.5
5398.67
5086.08
30431
24865.1
15291.4
11521.4
9183.67
7635.04
6570.55
5833.65
5337.62
5017.48
30428.2
24864.6
15291
11521.3
9183.74
7635.26
6570.87
5833.98
5337.89
5017.66
31232
27002.3
15624.3
11573
9157.03
7611.09
6579.48
5875.28
5399.29
5086.5
32675.9
32393.2
16380.7
11725.5
9164.67
7616.09
6628.16
5968.88
5521.99
5221.49
33664.8
34698.1
16612.5
11688.7
9120.64
7619.28
6692.68
6088.16
5681.02
5404.23
34160.5
33674.3
16064.6
11339.3
8919.29
7528.76
6694.44
6168.93
5826.86
5599.06
30704.9
29132.6
14539.9
10618.4
8498.25
7278.68
6572.72
6158.11
5913.95
5767.2
21039.4
20750.7
12479.8
9648.72
7918.21
6896.34
6333.85
6046.85
5921.81
5880.14
15902.7
15619.8
10829.9
8750.69
7329.98
6473.19
6034.56
5864.84
5857.47
5927.22
12754.9
12529.3
9550.28
8001.43
6822.85
6090.06
5738.52
5655.36
5743.93
5913.62
10554.6
10428
8566.14
7429.11
6443.63
5794.72
5489.12
5453.24
5605.36
5852.05
10855.7
10737.6
9350.75
8362.03
7396.14
6729.61
6401.02
6350.59
6504.77
6762.6
12457.6
12264.1
10148
8845.05
7722.81
6986.15
6614.44
6514.92
6600.93
6776.36
14480.2
14254.7
11146.9
9484.31
8180.93
7341.22
6886.31
6696.75
6679.71
6747.33
17351.4
17061.1
12414.9
10283.6
8751.92
7769.45
7192.13
6877.66
6733.45
6680.93
21970.4
21526.8
14067.2
11227.2
9379.64
8208.07
7478.18
7022.19
6745.27
6576.41
30951.8
30130.8
16263.6
12248.3
9965.2
8567.76
7678.99
7091.99
6701.89
6440.66
35753.4
36434.3
18166.4
13035.7
10365.1
8769.8
7752.87
7070.38
6605.58
6289.39
37126.7
38295.2
18880
13414.4
10551.9
8832.9
7729.79
6987.81
6484.69
6147.65
35892.2
32370.7
18174.1
13356.5
10589.8
8842.87
7688.23
6906.31
6382.91
6042.06
34602.7
28778.8
17611.5
13276.5
10615.5
8863.09
7675.34
6866.1
6329.79
5988.22
34598.9
28777.8
17611
13276.3
10615.6
8863.32
7675.64
6866.36
6329.94
5988.22
35882.5
32368.3
18173.1
13356.3
10590.1
8843.51
7688.91
6906.82
6383.11
6041.93
37120.8
38293.4
18878.8
13413.7
10551.9
8833.37
7730.44
6988.34
6484.87
6147.43
35750.6
36434.6
18165.9
13035.1
10365
8770.11
7753.37
7070.81
6605.74
6289.23
30949.9
30132.8
16263.2
12247.7
9964.88
8567.7
7679.02
7091.95
6701.67
6440.25
21969.1
21527.4
14067
11226.8
9379.24
8207.73
7477.85
7021.8
6744.77
6575.8
17350
17061.1
12414.9
10283.5
8751.72
7769.09
7191.55
6876.86
6732.44
6679.73
14479.3
14254.7
11147.2
9484.59
8181.03
7341
6885.67
6695.66
6678.17
6745.36
12457.2
12264.5
10148.7
8845.96
7723.48
6986.31
6613.95
6513.7
6598.97
6773.65
10855.4
10738
9351.63
8363.25
7397.19
6730.1
6400.68
6349.27
6502.43
6759.22
11705.8
11524
10487.2
9621.69
8677.32
8002.23
7661.6
7601.53
7752.27
8008.36
12973.9
12726.3
11150
10026.7
8955.64
8225.03
7844.45
7732.17
7807.8
7969.9
14430.5
14174.7
11947.7
10563.3
9360.44
8548.51
8088.56
7881.77
7841.81
7877.47
16387.5
16079
12936.1
11240.7
9882.01
8958.11
8384.07
8049.53
7872.64
7778.58
19287.1
18815.1
14218
12072.1
10488.9
9409.42
8692.17
8212.91
7895.59
7678.05
24043.2
23176.5
15897.6
13024.8
11106.8
9825.54
8951.99
8336.8
7899.38
7583.62
33278.1
32036.6
18183.1
14032.1
11640.3
10127.5
9109.81
8391.38
7873.56
7499.27
38384.3
39232.6
20230.8
14824.4
12008
10292.9
9164.44
8381.9
7824.48
7430.06
39423.7
38307.2
20502.1
15105
12188.5
10376.7
9175.33
8352.46
7777.58
7383.56
37701.3
32320.1
19713.7
15035
12245.3
10424.1
9184.68
8337.27
7753.07
7362.22
37696
32318.4
19713
15034.7
12245.3
10424.3
9184.92
8337.45
7753.11
7362.09
39406.8
38301.7
20500.3
15104.5
12188.7
10377.2
9175.8
8352.68
7777.45
7383.09
38375.9
39229.9
20229.1
14823.5
12007.8
10293.2
9164.73
8381.92
7824.09
7429.28
33272.8
32036.5
18182
14031.3
11640
10127.4
9109.77
8391.12
7872.97
7498.42
24038.8
23175.3
15896.6
13024.1
11106.3
9825.12
8951.46
8336.06
7898.46
7582.63
19284.5
18814.3
14217.5
12071.7
10488.5
9408.89
8691.49
8212.09
7894.71
7677.19
16385.4
16078.5
12936.2
11241
9882.04
8957.8
8383.43
8048.66
7871.67
7777.61
14429.4
14174.7
11948.3
10564
9360.97
8548.58
8088.14
7880.92
7840.64
7876.09
12973.9
12727
11151.2
10028.2
8956.85
8225.63
7844.32
7731.35
7806.37
7967.97
11705.8
11524.7
10488.5
9623.41
8678.8
8003.04
7661.5
7600.49
7750.39
8005.75
13128.4
12846
12031.7
11237.4
10294.1
9608.9
9267.49
9208.81
9356.26
9621.72
14217.3
13867.8
12607.7
11582.6
10532.9
9806.14
9429.94
9317.2
9383.05
9527.61
15346.7
15011.3
13268.6
12039.6
10896.3
10109
9657.12
9443.13
9374.89
9341.59
16814.4
16448.1
14068.6
12621.8
11381.5
10512.5
9954.44
9610.97
9389.66
9205.64
18936
18429.8
15101.2
13348.6
11963.3
10977.9
10291.9
9805.81
9432.95
9113.82
22153.5
21339.4
16454.5
14206.3
12579.8
11432.4
10608.4
9990.91
9494.24
9072.31
27886.8
26217.8
18237
15138.9
13141.3
11794.2
10836.9
10124.6
9549.61
9070.17
36980.3
36392.1
20809.2
16138.2
13616.7
12036.5
10963.6
10194
9584.09
9089.22
40857.9
40609.3
22164.3
16772.8
13945.8
12198.4
11035.4
10226.8
9603.92
9115.13
40055.3
35072.9
21589.8
16814.8
14064.9
12284.9
11077.9
10244.5
9615.94
9134.01
40049.6
35070.5
21588.9
16814.4
14064.9
12285
11078.1
10244.5
9615.76
9133.64
40840.8
40602.7
22161.9
16772.1
13945.8
12198.7
11035.5
10226.7
9603.31
9114.16
36971.1
36388.1
20807.1
16137.2
13616.4
12036.5
10963.5
10193.4
9582.97
9087.68
27879.2
26214.4
18235.2
15138
13140.8
11793.8
10836.3
10123.5
9548.07
9068.33
22148.3
21337
16453.5
14205.8
12579.4
11431.7
10607.3
9989.4
9492.47
9070.49
18932.9
18428.5
15101
13348.6
11963
10977.2
10290.9
9804.5
9431.49
9112.4
16812.3
16447.6
14069.1
12622.5
11381.9
10512.3
9953.81
9610.02
9388.59
9204.61
15345.9
15011.5
13269.7
12041
10897.4
10109.5
9657
9442.54
9373.99
9340.53
14218
13869
12609.5
11584.7
10534.6
9807.16
9430.18
9316.73
9382.01
9526.18
13129
12847
12033.3
11239.5
10296
9609.97
9267.61
9208
9354.69
9619.61
15178.5
14768.9
14049.1
13260.5
12289
11584.4
11245.4
11186.6
11297.8
11443
16224.4
15730.1
14601.1
13585.4
12514
11776.1
11406.7
11293.1
11305.7
11273.4
17194.5
16720.7
15194.7
14004.7
12864.6
12082.6
11642.1
11426.9
11302
11098.7
18411.6
17915
15896.8
14547
13354.3
12516.7
11976.8
11633.5
11339.9
10960.1
20172.1
19530.7
16805.1
15236.9
13960
13038.9
12385.8
11907.3
11443.9
10906.7
22768
21802.3
17980.2
16046
14600.4
13558
12791.9
12192.6
11596.9
10944.1
26766.8
25159
19467.8
16909.6
15178.6
13972.3
13096.7
12421.9
11752.6
11041.2
34858.6
31747.8
21558.7
17840.7
15663.4
14248
13272.2
12562.2
11871.7
11153.4
41772.1
40615.5
24003.9
18758.6
16091.3
14450
13373.5
12642.4
11949.8
11248.5
42323.4
38141.4
23883.5
18962.1
16270.6
14559.7
13429.7
12682.4
11990.2
11303.5
42317.8
38138.7
23882.3
18961.5
16270.5
14559.7
13429.7
12682.2
11989.8
11303
41754.2
40605.7
24000.5
18757.5
16091.1
14450
13373.4
12642
11949
11247.4
34847.4
31741.4
21556.2
17839.7
15663.1
14247.7
13271.7
12561.2
11870.3
11151.7
26759.1
25154.6
19465.8
16908.6
15177.9
13971.4
13095.6
12420.4
11750.7
11039.2
22762.9
21799.8
17979.5
16045.8
14599.9
13556.9
12790.4
12190.8
11595
10942.4
20169.2
19529.5
16805
15237.2
13959.8
13038
12384.5
11905.9
11442.6
10905.6
18410
17914.9
15897.7
14548
13354.8
12516.5
11976.2
11632.8
11339.3
10959.8
17194.2
16721.3
15196
14006.3
12865.8
12083.2
11642.2
11426.8
11301.8
11098.6
16225.6
15731.5
14603
13587.5
12515.6
11777.1
11407.1
11293
11305.4
11272.9
15179.5
14770.1
14050.6
13262.4
12290.6
11585.4
11245.5
11186
11296.8
11441.9
17885.7
17348.5
16604.3
15755.9
14732.8
14000.3
13658.6
13579.1
13569.5
13436
19069.2
18399.6
17236.6
16140.9
15006.4
14237.9
13870.2
13750.6
13654.2
13350.1
20100.1
19417.4
17877.1
16607.2
15409.8
14604.9
14170.2
13959.3
13714.7
13187.3
21271.7
20578.6
18615.1
17212
15989.1
15145.8
14615.9
14288.5
13845.7
13075.6
22911.2
22092.3
19536.6
17967.4
16699.5
15794.9
15171.9
14727.1
14078.7
13095.1
25312.6
24160.8
20692.8
18818.5
17425.9
16424.6
15725.9
15185.4
14388.3
13244
28817.4
27035.4
22088.2
19686.1
18043.7
16903.9
16126.2
15546.5
14685.3
13458.7
35176.8
31743.4
23903
20554.6
18526.6
17190.7
16322.1
15756.4
14897.6
13663.8
43996.5
41559.3
26691.9
21571.2
18974.7
17386.4
16404.3
15845.4
15003.4
13812.9
45909.9
42318.6
27112.6
21912.7
19181.7
17488.5
16435.1
15856.9
15049
13891.1
45905.4
42315.8
27111.3
21912.2
19181.5
17488.4
16434.9
15856.5
15048.4
13890.3
43980.6
41549.3
26688.3
21570
18974.3
17386.1
16403.8
15844.7
15002.4
13811.6
35167.2
31738.3
23901.2
20554.1
18526.4
17190.3
16321.3
15755.1
14896
13662
28810.2
27031.4
22086.6
19685.4
18043
16902.7
16124.6
15544.7
14683.2
13456.6
25308.5
24159
20692.7
18818.8
17425.5
16423.4
15724.2
15183.6
14386.6
13242.6
22909
22091.7
19537.1
17968
16699.3
15793.9
15170.6
14725.7
14077.5
13094.3
21271.1
20579.1
18616.4
17213.3
15989.7
15145.6
14615.3
14288
13845.4
13075.9
20100.4
19418.3
17878.7
16609
15411.1
14605.5
14170.4
13959.4
13715
13188
19070.9
18401
17238.2
16142.8
15007.8
14238.8
13870.6
13750.7
13654.3
13350.3
17886.9
17349.6
16605.6
15757.6
14734.1
14001
13658.7
13578.8
13568.9
13435.6
21263.9
20628.8
19763.3
18804.6
17725.2
16963.7
16612.5
16482.9
16234.2
15678.3
22899.2
22010.1
20657.9
19403.3
18176.9
17360.9
16991.3
16858.6
16526.8
15699.7
24438.3
23374.2
21566
20095.3
18780.8
17920.8
17507.7
17323.9
16785.4
15606.6
25740.7
24761.1
22575.2
20980.3
19631.3
18724.5
18229.2
17949.5
17142.8
15579.3
27370.6
26335.2
23636
21920.1
20560.1
19594
19031.5
18679.2
17619.9
15723.2
29790.2
28388.2
24835.2
22867.6
21417.9
20366.9
19763.5
19377.6
18160.3
16010.4
33357.6
31225.3
26265.7
23767.5
22066.1
20899.4
20252.3
19903.7
18662.6
16357
39647.2
35638.2
28034.1
24616.8
22532.9
21166.6
20419.8
20134.8
18976.6
16648.2
48713.5
44821.2
30827.6
25640.7
22943.5
21306.9
20385.1
20092.3
19041.9
16831.6
51011.3
47679.7
31611.1
26035.6
23134.4
21365.7
20343.2
19967.1
19056.2
16915.3
51007.9
47676.9
31609.8
26035.1
23134.2
21365.5
20342.9
19966.7
19055.5
16914.5
48700.4
44813.2
30824.5
25639.8
22943.1
21306.5
20384.6
20091.7
19040.9
16830.4
39640.2
35634.8
28033.4
24617
22533
21166.1
20418.9
20133.7
18975
16646.6
33351.7
31222.2
26264.7
23767.2
22065.4
20898.1
20250.7
19902
18660.7
16355.2
29787.6
28387.5
24835.7
22868.3
21417.6
20365.6
19761.9
19376.1
18159
16009.6
27369.5
26335.2
23636.8
21920.9
20559.9
19592.8
19030.2
18678
17618.9
15722.8
25741
24762.1
22576.7
20981.7
19631.8
18724
18228.6
17949.2
17142.9
15580
24439.2
23375.4
21567.6
20097
18781.9
17921.2
17507.9
17324.2
16786
15607.7
22900.9
22011.2
20659.1
19404.7
18178
17361.4
16991.7
16858.9
16527
15700.2
21265.2
20629.7
19764.3
18805.9
17726.3
16964.1
16612.6
16482.8
16233.9
15678.3
25185.2
24565.9
23545.8
22478.8
21386.2
20617.1
20239.5
20016.3
19246.2
18001.8
27729.2
26654.9
25003.5
23564.7
22275.2
21429.3
21048.3
20920.5
19950
18244.3
30591.4
29034.8
26612
24861.1
23428.2
22551.4
22182.7
22076.1
20693.9
18341.9
32276.3
31005.5
28307.9
26485.4
24969.3
23991.9
23521.6
23265.6
21509.2
18490.5
33747.6
32659.8
29603.4
27708.8
26211.8
25143
24648.1
24404.4
22392
18813.2
36184.4
34601.1
30754.8
28679.9
27122.2
25959
25491.1
25331
23195.7
19246.7
40016.5
37560.7
32167
29415.1
27626.9
26363.8
25881.4
25821.1
23743.1
19690.5
46783.5
42149.4
33954.1
30214
27928.5
26468.1
25789.8
25863.1
24128
20047.7
55518.8
51418.2
36805.9
31164.4
28258.6
26482.4
25538
25495.7
24484.6
20301.5
57610.7
54953.1
37701.1
31542.9
28383.7
26452.6
25372
25123.3
24417.5
20367.3
57608.2
54950.8
37700.1
31542.6
28383.5
26452.4
25371.7
25122.9
24416.9
20366.5
55508.9
51412.7
36803.8
31163.9
28258.4
26482.1
25537.6
25495.5
24483.7
20300.6
46779.7
42148.1
33954.5
30215
27929
26467.7
25789.1
25862.4
24126.3
20046.3
40012.5
37559
32166.9
29415.5
27626.5
26362.6
25879.9
25819.8
23741
19689.1
36183.7
34601.6
30756.2
28681.2
27122.3
25957.9
25489.7
25330
23194.6
19246.5
33747.8
32660.7
29604.9
27710.2
26212.2
25141.9
24646.9
24403.4
22391.1
18813.2
32277.9
31007.2
28310
26487.3
24970.2
23991.3
23521
23265.2
21509.2
18491.7
30592.8
29036.3
26614
24863.1
23429.8
22551.3
22182.8
22076.4
20694.4
18343.4
27730.6
26655.8
25004.6
23566.1
22276.3
21429.6
21048.6
20920.9
19950.3
18245.3
25186.5
24566.8
23546.9
22480.2
21387.5
20617.5
20239.8
20016.5
19246.3
18002.4
29323.9
28956.2
27939.1
26818.6
25865.8
25148.9
24692.6
24352.5
22572.2
20326.4
33354.8
32280.8
30505.1
28822.3
27748.9
26979.7
26506.6
26352.2
24024.1
20916.5
38738.2
36853
33922.5
31387.1
30257.2
29690.3
29233.5
28919.6
25587.5
21346.3
40368.2
39485.5
36648.5
34370.8
33037.5
32076.3
31571.7
30911.4
27086.4
21765.2
41957.4
40886.1
37927.2
35982.6
34542.3
33386.5
32846.4
32279.5
28190.1
22240.4
44649.4
42763.4
38712.4
36782.8
35244.3
33914.3
33406.9
33129.4
29181.5
22810.1
48947.4
45903.1
39867.6
36983.1
35180.1
33761.6
33277.7
33459.6
30385.8
23409.9
56569.4
50976.1
41693.9
37432.6
34985.5
33354.4
32607.9
32948.2
30865.5
23804.6
63849.5
60727.7
44724.3
38267.7
35115.4
33097
31967.9
31904.8
30730.5
23927
65558.9
65448.6
45878
38628.2
35118.4
32915.1
31606.3
31228.3
30352.5
23931.7
65558
65447.1
45877.3
38628.2
35118.5
32915
31606.3
31228.3
30352
23931.1
63843.1
60724.8
44722.7
38267.8
35115.7
33097
31968.2
31905.8
30729.9
23926.2
56570.9
50977
41695.4
37434.5
34986.6
33354.5
32608.1
32948.9
30863.7
23803.1
48946.5
45903.1
39868.6
36984.5
35180.7
33761
33277
33459.3
30383.2
23408.3
44650.6
42765.1
38714.6
36785.1
35245.5
33913.4
33406.2
33128.9
29179.4
22809.8
41958.8
40887.8
37929.5
35985.3
34544.3
33384.8
32845.5
32278.5
28188
22240
40370.7
39488.1
36651.8
34374.5
33041.1
32073.2
31570.7
30910.4
27085.2
21765.8
38739.7
36854.3
33925.5
31391
30262.7
29685.1
29232.8
28919.1
25587
21347.3
33355.6
32281.6
30506.8
28824.5
27751.2
26979.2
26507
26352.4
24024
20917.2
29325.3
28957.4
27940.7
26820.7
25867.9
25149.4
24693.2
24353
22572.2
20326.9
32931.2
33235.4
32691.8
31852.9
31154.6
30538.3
30043
31015
26316
23340.1
38175.6
38075.9
36877.4
35551.2
34725.6
34091.4
33715.6
33740
28777.9
23811.7
44985.5
45021.8
42791.4
40643
39943.1
39707.5
39388.4
38300.5
31437.9
24602.9
48946.6
48969.9
46980.8
45398.8
44564.7
43627.5
42850.2
40982.6
33698.2
25275.7
51101.4
50209.3
47747.2
46972.1
46166.8
44883.2
43952.4
42430.8
35454.1
25979.8
54548.5
52519.1
48217.4
47238.5
46234.8
44549.1
43712.5
42921
36798.1
26651.9
59759.7
56099.7
49188.1
46559.8
45045.6
43273.6
42495.8
42411.8
37358
27116.6
67166.1
61792.2
50921.2
46321.8
43884.6
41932.4
40824.2
40933.7
37566.8
27414.1
72057.2
71455.5
53944.5
46817.8
43540.6
41198.8
39626.4
39138.6
37167.2
27468
73268.4
76134.3
55174.3
47115.7
43374.4
40801
39019
38147.7
36492
27404.6
73269.6
76132.8
55173
47115.8
43374.8
40801.3
39019.4
38148.2
36491.8
27404.2
72054.1
71453.8
53942.8
46818.4
43541.9
41199.8
39627.9
39141.3
37167.1
27467.3
67169.1
61794.3
50923.2
46324.8
43887.3
41934.2
40826.8
40937.5
37564.9
27412.9
59760.9
56101
49190.3
46563
45048.5
43275.4
42498.4
42414.4
37354.7
27115.2
54550.5
52521.6
48220.7
47242.7
46238.2
44551.1
43715.2
42922.8
36794.5
26651.3
51102.9
50211.7
47750.9
46977.3
46171.2
44884.9
43954
42431.1
35450.6
25979.2
48949.1
48973.2
46985.5
45405.3
44570.5
43630
42850.9
40982.1
33695.1
25275.8
44986.1
45023.9
42796
40649.8
39949.2
39711.5
39389.1
38299.7
31436.1
24603.4
38176.1
38077.5
36880.5
35555.4
34729.1
34093.5
33717
33741.1
28777.2
23812.2
32932.7
33237.2
32694.3
31856.1
31157.5
30540.2
30044.6
31017.1
26316
23340.4
37285.9
37048.1
37691.2
37268.2
36901.8
36392.3
35055.3
33100.3
29087.2
26125.5
42071.6
43133.7
43856.7
43195.8
42774.3
42438
41270.7
39101.6
33323.3
27062.9
48203.2
51153.2
51876.4
51484.5
51773.9
52218.9
51050.5
47194.2
37556.5
28084.6
55529.9
57845.2
57466.1
57825.8
58772.3
58231.5
55929.7
51546.7
40713.4
28841.2
62034.9
62180.9
58981
59206.6
60703.8
59415.2
56956.3
53408.2
42823.7
29639.6
67186.1
65504.5
59502.7
58999
59811.5
57753.6
55606.3
53513.5
44457.7
30297.4
71869
69267.8
60428.7
57853.5
57246.3
54908.5
53041.5
52136
45118.9
30773.2
76103.8
74561.7
62079.4
56973.3
54814.5
52271.6
50244.5
49601.1
44634
30957.4
78673
81514.5
64937.7
56962
53680.4
50773.3
48346.1
47052.2
43878.1
30837.6
79290.5
84755.5
66017.7
57043.2
53164
50033.5
47425.8
45722
43002.1
30741.7
79292
84755.5
66015.8
57043.3
53164.8
50034.6
47427
45723.6
43002.3
30741.4
78672.1
81514.3
64934.7
56963.5
53682.9
50776.9
48350.6
47058.3
43878.7
30836.8
76106
74564.5
62081.1
56977.9
54821
52278.1
50252.2
49610.3
44633.1
30956.3
71870.5
69270.3
60432
57862.4
57258.4
54917.6
53051.3
52144.7
45116.5
30771.6
67187.5
65507.4
59507.9
59009.7
59826.4
57764.5
55616.7
53520.6
44454
30296.3
62034.7
62183.3
58987.1
59216.1
60715.7
59423.7
56964.1
53412.3
42818.3
29638.1
55529.3
57847.7
57471.8
57836
58783.3
58238.5
55934.2
51547.3
40707.5
28840.1
48203.7
51156.3
51883.8
51495.5
51783.9
52223.1
51052.4
47193.2
37551.7
28083.8
42072.4
43136.8
43863.4
43203.4
42779
42439.4
41271.9
39102
33320.7
27062.4
37287.3
37050.8
37695.8
37272.9
36905.7
36394.4
35057.2
33101.3
29086.1
26124.4
36402.1
39802.9
45027.6
43099.9
42859.7
42793.4
39535.8
36040.7
31789.1
26684.9
42537.7
46909.9
51902.6
51605.8
52094.3
51895.2
48535.3
44369.2
37956
30989.7
48579.3
55443.5
61675.7
63663.6
66106
66311.4
62257.2
54482.7
43103.4
32722.1
54763
63272.6
67664.2
70699.1
74399.1
74117.4
69067.4
60346.6
46928
32017.5
61833.4
70149.5
71315.1
73123.4
76621.5
75471.9
70338.6
63269.9
49891.6
32949.8
69609.1
76483.1
73492.5
73141.4
75235.5
72869.9
68237.5
63523
51750.3
33401.6
76304.1
81862.5
75081.2
71729.2
71668
68486.3
64494.1
61593.2
52271.2
33879.2
80395.6
86251.2
76937.3
70340.1
68166.5
64440.6
60627.5
58447
51954.8
34573.2
82475.9
90217
79599.9
69786.1
66066
61932
57917.3
55310.1
50657.1
34019.8
83074.5
92014.8
80286.2
69470
64952.5
60636
56590.2
53689.3
49947.1
33949.7
83075.7
92015.3
80283.1
69468.6
64955.1
60638
56592.2
53691.7
49948
33949.6
82475.6
90217.1
79594.7
69781.1
66078.6
61938
57923.2
55317.6
50658.1
34018.8
80396.8
86253.1
76937.1
70343.1
68179.9
64451.5
60639.9
58459.9
51955.3
34572.1
76304.1
81864.3
75084.1
71732.9
71681.3
68502.8
64511.6
61607.5
52269.5
33877.9
69608
76484.1
73497.6
73148.9
75251
72888.8
68256.5
63535.6
51747.9
33400.5
61832.2
70150.5
71321.1
73134
76639
75487.5
70353.7
63277.2
49887.9
32948.3
54763.6
63275.2
67670.7
70709.6
74412.6
74128.1
69076.3
60348.4
46922.1
32016.4
48581.6
55448.6
61685.5
63674.3
66116.3
66316.9
62260.9
54478.7
43099.8
32721.3
42540
46914.8
51914.7
51613
52098.6
51895
48537.1
44367.1
37952.6
30991.8
36404.9
39807
45039.2
43104.9
42863.4
42793.3
39537.7
36040.5
31785
26683.4
36776.7
41779.8
46908.7
50945.1
48559
56956.6
42898.7
37449.2
38334.4
28646.5
43307.7
50310.1
57857.8
61325.4
60845.5
65594.1
53955.8
46833.2
41656.9
31908.9
49355.1
60263.8
71790.3
77179.7
79213.7
80100.4
69597.2
57034.2
45432.9
31932.8
54685.6
68441
79126.9
85216.1
89255.6
88374.4
78304.4
64238.4
50722.3
37031.3
59854.1
75751.8
84637.8
89332
93316.9
91408.9
81926.2
68698.8
54155.5
38634.4
64708.6
81969.7
88324
90152.3
92662.8
89386.1
80756.8
70369.4
55895.5
35933.2
69137.9
87218.1
90619.6
88747.8
88770
84200.5
76656.5
69649.4
57111.1
36822
72799.5
91018.6
92517.9
87006.5
84558.1
78855.8
72063
67167.9
58762
42737.7
75592.5
94119.9
94437.5
85888.9
81471.8
75127.6
68501.1
63581.8
56814.9
37922.3
77000.5
95576.6
95051
84978.1
79541.9
72965
66587.7
61626.1
56151.4
37552
77000.4
95576.9
95048.9
84974.8
79545.3
72968.6
66591
61629.2
56152.7
37551.8
75591.3
94119.6
94433.1
85873.1
81487.9
75140.3
68511.5
63591.6
56816.4
37920.5
72799.4
91019.4
92516.4
86999.4
84569.2
78876.1
72081.8
67182.8
58763.8
42732.7
69137.7
87219.6
90621.5
88756.5
88792
84227.5
76682.6
69665.2
57112.4
36820.5
64709.2
81971.4
88328.8
90166.6
92690.3
89414.9
80783
70382.7
55895.1
35931.9
59855.3
75755.6
84642.8
89344.9
93335.4
91427.6
81943.7
68706.4
54152.2
38631.1
54688
68447
79133.8
85227.7
89268.2
88382.7
78313.4
64239
50714.1
37029.3
49358.6
60272.2
71800.2
77190.6
79220.5
80097.2
69597.6
57030.1
45420.8
31930.5
43310.7
50316.3
57867.4
61332.2
60845
65574.3
53952
46828.6
41636.8
31906.6
36779.8
41784
46913.6
50947.6
48559.2
56927.6
42896.8
37445.5
38296
28639.4
39539.7
44202.4
56303.2
51456
50694.7
54669.6
42389.3
35052.6
29891.3
24795.7
45073.4
54737.3
66881.2
67084.8
66235.1
66475.9
55148.4
44123.2
36053
28157.8
50664.1
66563.9
83466.7
86921
86783.5
83266.4
70085.6
53178.5
41263
30653.4
55558.4
75607.3
92755.6
97821.8
98780.5
93757.1
79909.2
60720.3
46799.8
34230.2
60138.1
83383.9
99214.4
104174
105734
100113
85993.3
66450.6
50953.8
36419.8
64125
89143.5
103201
106961
108448
102547
88855.8
70465.9
54044.1
35184
67406.2
93660.7
105336
107106
107342
100966
88291.5
72293.3
56657.9
37174
69818.2
96245.1
106531
106198
104497
96981.7
84875.4
72573.4
60216.2
45239.3
71544.5
98596.7
108007
105457
101399
92345
80922.9
71151.9
60804.9
46595.2
72392.8
99701.7
108516
104691
98704.1
88922.8
78433.1
69947
61277.4
48529.6
72393
99702.1
108515
104688
98703.7
88925.6
78436.7
69949.6
61278.4
48528.6
71544.3
98597
108004
105444
101397
92350.8
80933.1
71157.5
60805.6
46592.1
69819
96246.1
106528
106181
104461
96974.6
84893.3
72582.3
60218.5
45236.5
67406.9
93662
105332
107053
107326
100973
88308.6
72305.1
56661.6
37174.2
64127.3
89149.2
103211
107032
108474
102568
88873.9
70476.1
54047.5
35184.9
60140.5
83389.3
99221.4
104201
105749
100127
86007.3
66457.9
50957.1
36423.1
55561.6
75616.1
92763
97837.5
98789.8
93764.7
79917.2
60722.5
46801.4
34234.7
50667.7
66574.3
83475.3
86933.4
86788.2
83266.6
70086.2
53172.1
41259.9
30656.7
45076.1
54744.4
66888
67095.2
66234.8
66468.9
55146.3
44121.6
36051.4
28162.1
39541.9
44206.3
56303.4
51461
50696.1
54664.4
42390.1
35052.9
29889.1
24798.3
38534.9
43938.3
51643
51161.7
50516.8
45914.2
39058.3
32144.5
30069.3
21202.5
44171.5
56244
67665.5
68389.4
66635.6
60500.7
50596.5
39138.7
32438.5
23679.4
49769.3
69468.6
86268.2
88467.7
86241.3
77150.8
62787.8
45799
35477.1
25734.2
54692
79617.8
97728.4
101113
99293
89386.9
72738.5
52380.7
39509.4
28293.4
59254.8
88108.6
105456
109505
108273
98400.6
80574.7
58010.3
43290.3
30642.4
63288.8
95062.1
110081
114141
113954
104567
86604
63374.9
47618.3
33210.8
66478.6
99349.8
113095
116844
116267
107495
89671.7
66750.6
50724.1
35563.7
68887.8
102430
115254
118182
116928
108187
90683.4
69182.5
53818.1
38707.9
70477.8
104266
116421
118661
116511
107113
89888.9
69825.1
55121.9
40160.3
71277.6
105239
117058
118771
115585
105394
88628.7
69897.8
55977.3
41172.2
71278.2
105241
117059
118772
115583
105396
88629
69898.9
55978.5
41173.4
70479.1
104268
116422
118664
116504
107116
89879.2
69824.4
55122.4
40160.3
68890.2
102434
115256
118184
116902
108185
90687.9
69186.7
53821.4
38709.8
66481.4
99354.4
113098
116843
116257
107499
89680.8
66757.9
50729.6
35567.4
63292.3
95068.5
110089
114177
113965
104579
86615.2
63382.8
47624.2
33214.9
59258.1
88114.7
105462
109523
108280
98409.9
80584.7
58018.2
43297.6
30647.7
54695.4
79626.2
97733.2
101124
99296.4
89392.5
72744.9
52384
39515.7
28298.3
49772.2
69476.9
86270.8
88475.2
86240.8
77152.2
62788.8
45802.2
35483.5
25739.4
44173.2
56248.7
67662.9
68393.2
66629.5
60498.3
50595
39137.3
32445.5
23685.5
38536
43940.9
51640.7
51164
50514
45915
39059.8
32146.9
30077.8
21208
36346.3
43160.8
64410.3
51702.8
60029.1
42465.1
35397.2
31938
24311.9
18797.4
41596.4
54481.2
71791.7
66713.9
68129.6
53847.3
43361.7
34589.1
26811.2
20563.8
46517.8
65683.1
83978
82501.6
79978.9
65593.1
50871.3
37912.4
29111.5
22001.8
51118.6
75297.9
93971.6
94467.9
90551
76228.6
58879.8
42041.6
31726
23596.3
55577.1
83950.4
102045
103894
99714.5
85403.4
66014.7
46202.9
34424
25276.3
59771
91671
108354
111077
107668
94115
73654.5
50969.3
37440.8
27157
63235.5
97172.3
112653
115725
112733
99869.8
78701.4
54670.6
40021.9
28899.4
65926.9
101035
115827
118947
116085
103950
82602.5
58110.7
42572.9
30684.8
67733.5
103431
117713
120718
117669
105485
84095.2
59869.9
44110
31800.9
68656.3
104665
118715
121628
118188
105703
84568.5
60806
45078.5
32485.2
68657.3
104666
118716
121631
118188
105707
84568.3
60806.7
45079.7
32486.3
67736
103435
117718
120730
117669
105502
84084.7
59869.2
44110.9
31801.1
65931.4
101042
115833
118957
116075
103959
82606.4
58113.3
42575.6
30686.3
63240.9
97181.4
112660
115736
112734
99881.2
78711.3
54676.9
40026.3
28901.7
59776.4
91680.1
108362
111096
107675
94126.7
73666.2
50976.3
37444.9
27158.7
55581.7
83958.2
102050
103906
99718.3
85413.6
66027.6
46210.7
34429
25279.2
51122.5
75305.4
93973
94473.3
90550
76236.2
58890.5
42049.7
31731
23599.2
46520.3
65688.5
83973.2
82501.8
79970.5
65597.2
50880.5
37919.9
29117.1
22005.8
41597
54481.9
71774.1
66709.2
68107.6
53846
43366.6
34598.2
26818.3
20569.1
36346.1
43159.4
64375.9
51696
59989.8
42463.5
35400.6
31946.9
24319
18802.1
32188.1
37585.6
44619.5
53847.4
52158.8
36625.5
32897.7
25907.7
21247.4
17645.7
36466.5
46236.7
55686
59173.8
56304.3
43424.4
36028.2
28467.4
23144
18806.1
40324.1
54022.8
65681.2
66698.3
62286
49674.9
39641.1
30848.8
24757.5
19720.6
44323.5
62503.6
76786
76720.6
70895.3
57169.2
44269.3
33571.2
26491.5
20714.9
48360.1
70408.6
86191.2
86010.4
79276.5
64458.3
49117.1
36481.6
28376.1
21877.6
52531.4
79031.9
95424.1
96172.8
89549.2
73490.3
55091.7
39782.5
30462.9
23239.1
56083.3
85311.7
101956
103000
96853.6
80558.2
60099.8
42660.1
32364
24582
58955.4
89976.6
107059
108782
102967
87669.4
65371.8
45393.4
34115.2
25858
60912.5
92899.2
110029
112213
106616
91104.1
68554.1
47173.6
35307.7
26771.4
61925.6
94379.7
111527
114157
108644
92938.2
70531.9
48255.4
36001.6
27294.5
61926.9
94381.7
111530
114161
108648
92944.7
70534.9
48256.9
36002.6
27295.5
60916.3
92904.4
110037
112228
106632
91133.2
68565.5
47178
35310
26772.5
58961.8
89987.8
107071
108800
102988
87699.3
65385.2
45399
34118.2
25859.6
56091.5
85328.4
101970
103015
96870
80578.4
60112.9
42666.6
32367.8
24583.9
52539.7
79049.2
95439
96187.3
89567.1
73509.6
55104.4
39788.2
30465.4
23239.5
48367.6
70424.5
86207
86022.9
79290.3
64476.7
49129.3
36487.7
28379.4
21879
44329.8
62517.3
76798.6
76729
70902.7
57184
44280.1
33577.1
26494.6