/*--------------------------------*- C++ -*----------------------------------*\
  =========                 |
  \\      /  F ield         | OpenFOAM: The Open Source CFD Toolbox
   \\    /   O peration     | Website:  https://openfoam.org
    \\  /    A nd           | Version:  7
     \\/     M anipulation  |
\*---------------------------------------------------------------------------*/
FoamFile
{
    version     2.0;
    format      ascii;
    class       volScalarField;
    location    "1";
    object      ILambda_12_0;
}
// * * * * * * * * * * * * * * * * * * * * * * * * * * * * * * * * * * * * * //

dimensions      [1 0 -3 0 0 0 0];

internalField   nonuniform List<scalar> 
4000
(
3454.02
1905.52
377.463
328.958
301.294
263.743
220.103
179.931
153.649
143.652
3808.76
2202.4
337.695
291.377
271.435
242.881
208.109
174.867
152.393
143.559
3862.3
2256.4
303.069
258.857
245.023
223.969
196.952
170.036
151.177
143.483
3624.88
2136.63
272.609
231.328
222.152
207.162
186.78
165.521
150.021
143.419
3233.13
1952.27
245.415
208.584
202.811
192.556
177.71
161.389
148.94
143.362
2863.78
1757.27
221.685
190.312
186.858
180.19
169.817
157.693
147.953
143.313
2630.92
1586.65
202.215
176.06
174.063
170.019
163.125
154.464
147.068
143.272
2471.4
1460.72
188.218
165.318
164.143
161.917
157.614
151.712
146.292
143.237
2348.72
1424.49
179.017
157.433
156.739
155.686
153.218
149.43
145.621
143.206
2265.15
1447.32
172.827
151.829
151.441
151.079
149.831
147.587
145.048
143.176
2169.5
1464.97
167.839
148.013
147.827
147.817
147.318
146.138
144.561
143.142
2049.26
1458.67
163.522
145.555
145.492
145.617
145.527
145.027
144.142
143.1
1905.34
1415.37
159.735
144.05
144.068
144.209
144.301
144.193
143.777
143.042
1715.87
1309.72
155.94
143.176
143.24
143.357
143.497
143.578
143.452
142.966
1516.3
1154.54
152.156
142.731
142.775
142.868
142.991
143.131
143.162
142.871
1309.35
986.564
148.824
142.507
142.522
142.599
142.684
142.813
142.906
142.759
1035.99
796.167
146.411
142.411
142.401
142.456
142.506
142.596
142.691
142.638
718.942
596.528
144.559
142.366
142.359
142.381
142.409
142.459
142.526
142.523
399.614
371.189
143.363
142.35
142.345
142.35
142.362
142.383
142.416
142.428
169.22
163.634
142.568
142.343
142.342
142.342
142.344
142.349
142.359
142.366
3321.42
1903.62
522.073
455.183
410.919
350.74
279.111
210.397
163.279
144.702
3778.48
2261.78
463.122
397.997
365.447
318.747
260.444
202.336
161.199
144.504
4270.68
2721.82
413.173
347.122
324.089
288.931
242.566
194.398
159.124
144.348
4513.57
2952.91
370.313
302.749
287.197
261.647
225.757
186.739
157.089
144.227
4268.99
2748.84
330.254
264.87
255.004
237.172
210.286
179.506
155.125
144.114
3706.7
2409.88
291.102
233.375
227.596
215.737
196.375
172.828
153.275
144.014
3234.57
2040.63
253.271
207.925
204.87
197.479
184.18
166.807
151.574
143.929
2951.99
1643.6
223.713
188.048
186.59
182.404
173.79
161.518
150.048
143.86
2763.86
1447.62
204.797
173.093
172.416
170.38
165.212
157.002
148.712
143.809
2642.91
1496.58
193.624
162.149
161.859
161.16
158.381
153.262
147.57
143.772
2548.26
1595.59
185.955
154.3
154.346
154.392
153.154
150.266
146.61
143.744
2432.78
1698.63
180.076
149.016
149.297
149.667
149.327
147.945
145.812
143.716
2258.19
1783.82
175.144
145.827
146.126
146.555
146.657
146.202
145.144
143.676
2040.66
1705.78
169.336
144.05
144.25
144.627
144.885
144.928
144.571
143.61
1822.78
1475.25
161.682
143.117
143.199
143.511
143.769
144.015
144.064
143.503
1474
1241.72
153.561
142.671
142.674
142.899
143.098
143.37
143.603
143.346
930.319
917.575
148.077
142.483
142.455
142.578
142.712
142.923
143.188
143.139
427.058
447.924
144.107
142.382
142.374
142.42
142.5
142.627
142.833
142.895
179.691
174.755
142.677
142.349
142.348
142.36
142.391
142.45
142.564
142.648
146.357
143.969
142.361
142.342
142.342
142.344
142.349
142.365
142.401
142.446
2912.25
1727.9
735.499
649.114
580.156
487.353
374.89
262.153
180.455
146.684
3216.88
1918.23
647.568
566.049
514.239
440.749
347.386
250.072
177.216
146.247
3603.46
2216.59
571.967
490.12
452.652
396.138
320.274
237.747
173.862
145.901
4068.17
2646.69
509.311
421.944
396.077
354.128
293.984
225.437
170.461
145.68
4496.18
3089.04
458.569
361.953
345.114
315.261
268.971
213.402
167.051
145.464
4207.16
3058.48
412.793
310.311
300.224
280.019
245.688
201.9
163.717
145.261
3654.1
2668.72
350.719
266.9
261.686
248.861
224.532
191.158
160.54
145.077
3193.91
2074.84
291.196
231.541
229.544
222.115
205.813
181.373
157.591
144.92
2866.76
1545.03
249.534
203.85
203.655
199.89
189.745
172.705
154.931
144.796
2679.58
1508.83
226.9
182.995
183.476
182.109
176.426
165.266
152.6
144.71
2528.43
1660.85
214.117
167.536
168.402
168.523
165.827
159.108
150.62
144.665
2339.85
1859.99
206.292
156.797
157.773
158.66
157.772
154.211
148.987
144.655
2080.77
1994.91
200.862
150.171
150.787
151.886
151.964
150.479
147.667
144.665
1750.13
1709.22
191.4
146.263
146.573
147.532
148.017
147.751
146.601
144.674
1380.71
1249.69
173.801
144.089
144.215
144.943
145.499
145.825
145.717
144.644
838.33
730.549
151.19
142.981
143.06
143.518
143.993
144.499
144.942
144.535
238.006
259.608
144.253
142.527
142.575
142.797
143.141
143.599
144.225
144.304
149.8
148.947
142.656
142.383
142.405
142.488
142.68
142.995
143.556
143.921
146.979
142.876
142.372
142.348
142.355
142.378
142.449
142.611
142.97
143.397
148.676
142.373
142.342
142.342
142.343
142.346
142.359
142.405
142.539
142.799
2799.58
1802.48
1046.67
934.585
829.717
691.947
523.365
346.56
210.153
150.543
2943.37
1851.95
919.145
819.629
738.915
627.567
485.112
329.711
205.523
149.58
3154.94
1977.68
804.531
711.813
651.966
564.419
446.363
311.835
200.47
148.674
3436.91
2200.19
704.37
612.184
569.838
503.322
407.707
293.282
195.165
148.302
3785.88
2544.25
620.088
521.721
493.507
445.079
369.7
274.45
189.599
147.921
4159.73
2991.52
551.681
441.231
423.913
390.502
333.046
255.779
183.92
147.541
3944.4
3018.18
492.829
371.256
361.867
340.356
298.459
237.678
178.279
147.171
3433.53
2563.32
409.889
311.73
308.034
295.514
266.619
220.527
172.82
146.823
2915.94
1793.63
329.49
262.804
262.754
256.637
238.103
204.686
167.686
146.515
2577.57
1546.6
279.359
224.331
226.047
224.107
213.374
190.479
162.999
146.265
2352.2
1664.84
253.859
194.986
197.234
197.964
192.761
178.184
158.866
146.093
2090.03
1840.66
238.958
173.879
175.913
178.029
176.351
167.986
155.364
146.016
1702.87
1797.5
221.436
159.932
161.397
163.74
163.965
159.933
152.52
146.041
1192.43
1190.66
189.061
151.11
152.134
154.137
155.196
153.912
150.293
146.16
650.518
592.795
153.613
146.049
146.788
148.194
149.431
149.646
148.583
146.339
173.772
182.37
144.907
143.676
144.06
144.866
145.934
146.772
147.237
146.51
144.624
144.705
142.837
142.726
142.895
143.273
143.983
144.905
146.091
146.564
142.637
142.625
142.436
142.43
142.486
142.627
142.982
143.705
145.007
146.352
142.379
142.371
142.355
142.357
142.37
142.412
142.545
142.937
143.931
145.717
142.344
142.343
142.343
142.343
142.344
142.351
142.377
142.494
142.941
144.363
3030.13
2138.49
1491.09
1337
1180.99
983.786
742.748
478.174
259.481
157.798
3040.24
2076.91
1317.15
1185.4
1062
899.31
692.508
456.554
253.748
155.94
3106.63
2071.39
1155.3
1040.05
945.72
814.775
640.324
432.619
246.889
153.545
3233.97
2136.33
1007.34
902.221
833.221
731.092
586.944
406.732
239.333
152.969
3424.92
2290.12
875.108
773.28
725.637
649.159
532.969
379.315
230.927
152.358
3677.57
2555.28
760.275
654.614
624.254
569.95
479.133
351.044
221.923
151.72
3940.95
2935.5
663.715
547.582
530.417
494.543
426.393
322.577
212.555
151.061
3621.17
2891.22
576.574
453.314
445.619
424.203
375.799
294.511
203.072
150.39
3041.86
2244.6
462.591
372.016
370.977
360.518
328.481
267.442
193.735
149.729
2505.54
1627.64
368.18
304.737
307.527
304.633
285.449
241.957
184.785
149.108
2179.16
1669.54
314.462
251.192
255.38
257.171
247.664
218.706
176.464
148.564
1827.56
1796.52
277.098
210.722
214.814
218.871
215.908
198.319
169.031
148.151
1270.89
1311.23
226.999
182.024
185.47
189.936
190.598
181.329
162.706
147.927
680.122
582.972
170.448
162.879
165.575
169.414
171.662
168.016
157.609
147.947
186.778
171.876
152.104
151.748
153.414
155.995
158.521
158.247
153.731
148.258
148.039
147.214
145.887
145.95
146.813
148.293
150.284
151.579
150.914
148.865
144
143.623
143.393
143.437
143.816
144.511
145.709
147.345
148.868
149.7
142.736
142.627
142.581
142.595
142.718
142.982
143.546
144.826
147.227
150.562
142.404
142.386
142.382
142.385
142.414
142.491
142.706
143.404
145.613
151.006
142.349
142.346
142.345
142.345
142.349
142.362
142.409
142.636
143.778
148.829
3581.58
2731.84
2100.31
1881.08
1653.86
1380.74
1051.83
674.136
337.474
170.176
3474.73
2576.24
1875.59
1689.68
1504.57
1274.68
989.26
649.013
332.135
167.107
3412.06
2462.81
1661.52
1503.07
1356.67
1167.06
922.735
619.595
324.518
161.866
3398.08
2402
1460.12
1322.52
1211.11
1058.87
853.28
586.382
315.132
161.04
3435.98
2406.89
1273.44
1149.32
1068.73
950.848
781.523
549.531
303.677
160.137
3526.77
2494.13
1103.58
984.937
930.66
843.715
708.018
509.864
290.603
159.179
3665.71
2684.12
952.651
831.225
798.275
738.362
633.47
468.373
276.247
158.158
3701.27
2947.83
821.301
690.354
673.591
636.031
559.319
425.906
260.978
157.054
3174.67
2558.17
674.07
563.911
558.92
539.112
487.09
383.253
245.251
155.881
2516.48
1777.01
526.647
453.621
456.359
449.732
418.175
341.16
229.45
154.66
2039.97
1635.15
425.48
361.203
367.667
369.739
354.066
300.6
213.894
153.419
1548.27
1575.48
345.349
287.261
294.67
301.369
296.689
262.701
199.083
152.222
885.533
846.173
256.386
231.312
238.227
246.258
247.951
228.896
185.608
151.169
298.555
232.102
191.288
192.047
197.428
204.493
209.033
200.615
173.985
150.382
172.031
168.269
166.028
166.92
170.349
175.3
180.247
178.56
164.601
150.039
155.293
153.149
152.21
152.496
154.384
157.399
161.083
162.721
157.559
150.364
147.212
146.033
145.57
145.598
146.493
148.003
150.154
152.43
152.648
151.625
143.652
143.237
143.114
143.112
143.417
144.005
144.995
146.643
149.418
154.191
142.563
142.484
142.479
142.476
142.548
142.714
143.072
143.981
147.175
158.568
142.37
142.356
142.355
142.354
142.364
142.393
142.47
142.791
144.784
158.419
4450.37
3593.64
2903.51
2590.31
2266.31
1898.17
1468.26
953.033
454.321
184.466
4244.93
3356.17
2624.63
2356.84
2084.8
1768.89
1393.59
927.647
452.796
176.675
4072.98
3150.51
2354.3
2126.71
1903.74
1636.61
1312.13
894.859
447.98
175.526
3939.12
2984.78
2094.85
1901.19
1724.21
1502.94
1225.76
855.448
438.804
174.398
3846.46
2868.08
1848.45
1681.14
1546.51
1368.45
1135.45
809.518
425.331
173.169
3795.81
2810.97
1617.13
1467.32
1370.72
1233.3
1041.62
757.822
408.357
171.874
3785.42
2825.87
1403.18
1261.21
1197.66
1097.39
944.175
701.769
388.276
170.503
3796.51
2922.31
1208.51
1065.13
1028.5
961.058
844.474
642.598
365.548
168.958
3424.74
2870.33
1024.52
881.661
865.747
826.106
743.923
581.589
341.063
167.237
2679
2110.69
803.836
713.515
712.706
695.352
643.862
519.107
315.533
165.336
2040.93
1709.95
636.017
564.81
572.753
571.585
545.637
455.565
289.172
163.215
1404.43
1338.66
493.374
438.512
450.242
458.946
451.727
391.612
262.489
160.889
677.155
512.999
337.94
336.46
348.777
361.558
365.672
329.744
236.357
158.414
273.661
260.885
254.943
259.417
269.497
281.87
291.153
273.979
211.974
155.863
211.615
205.446
202.995
205.172
212.086
221.774
231.56
227.071
190.693
153.387
178.243
172.747
170.259
170.642
174.854
181.341
188.754
190.89
173.333
151.198
157.688
153.945
152.312
152.102
154.24
157.928
162.528
165.931
160.141
149.47
146.928
145.373
144.872
144.725
145.528
147.054
149.287
151.56
151.095
148.482
143.137
142.829
142.818
142.77
142.966
143.402
144.175
145.18
146.011
148.552
142.457
142.393
142.393
142.382
142.413
142.492
142.647
142.899
143.598
149.884
5619.42
4738.61
3930.97
3489.43
3037.83
2550.79
2007.79
1333.18
622.787
199.894
5333.87
4430.58
3595.72
3211.33
2820.79
2395.37
1921.85
1313.79
632.034
198.729
5070.32
4145.67
3265.5
2934.73
2603.11
2234.43
1823.81
1281.41
634.444
197.115
4835.16
3892.35
2943.87
2661.86
2387.66
2072.18
1717.8
1237.62
629.411
195.606
4634.48
3679.45
2632.78
2393.03
2174.14
1909.55
1606.43
1182.81
616.568
194.002
4468.8
3516.72
2336.17
2129.48
1962.55
1747.49
1491.2
1118.53
597.818
192.449
4331.82
3411.03
2054.93
1871.71
1752.3
1585
1371.38
1046.78
572.945
190.872
4208.7
3367.56
1790.2
1619.2
1542.63
1419.91
1247.88
969.839
541.921
189.047
3901
3339.32
1538.2
1373.63
1332.2
1251.15
1122.12
889.527
505.839
186.896
3089.65
2649.76
1241.64
1137.39
1124.02
1079.3
993.417
806.622
468.209
184.503
2296.3
2021.41
988.085
917.212
922.451
906.618
860.703
721.193
428.032
181.68
1504.58
1378.88
760.492
718.484
734.185
738.356
724.579
628.752
385.087
178.323
701.547
575.168
533.44
546.287
566.227
581.409
588.663
528.303
340.351
174.464
402.132
394.43
394.257
405.588
423.487
442.371
459.914
428.427
294.325
169.997
304.656
295.829
292.178
296.136
310.376
327.67
346.774
337.551
251.425
165.08
237.856
225.997
219.281
218.636
228.043
241.825
257.39
261.415
214.083
159.944
189.594
178.742
173.259
171.327
176.557
185.539
196.405
204.375
184.015
154.894
158.398
152.739
150.658
149.689
151.836
155.986
162.123
168.317
161.98
150.301
145.175
144.01
143.998
143.723
144.262
145.506
147.824
150.737
149.079
146.549
142.799
142.534
142.538
142.475
142.569
142.829
143.368
144.067
143.33
143.648
7052.45
6174.77
5213.59
4607.48
3994.92
3356.63
2683.34
1827.93
853.423
235.861
6711.78
5810.81
4823.55
4283.65
3739.15
3172.81
2590.67
1827.01
882.64
233.385
6373.68
5456.54
4430.37
3956.07
3477.11
2974.48
2473.55
1802.28
900.27
230.927
6041.63
5119.87
4040.33
3629.97
3217.31
2772.21
2338.93
1753.65
905.37
228.85
5744.16
4815.58
3653.34
3302.29
2959.45
2570.51
2194.23
1685.19
897.017
226.743
5489.26
4564.24
3285
2984.85
2710.03
2377.97
2048.84
1602.28
878.772
224.435
5262.52
4369.75
2938.33
2678.82
2468.16
2194.16
1905.01
1510.41
852.416
222.794
5041.19
4223.49
2603.82
2379
2230.5
2012.8
1762.31
1411.56
815.015
221.008
4637.35
4081.43
2275.24
2078.92
1985.96
1825.75
1620.82
1310.05
766.177
218.958
3724.63
3392.03
1894.35
1775.39
1732.11
1627.07
1478.52
1213.44
715.37
216.382
2814.93
2571.89
1542.84
1479.25
1471.97
1415.04
1325.1
1119.63
660.343
213.357
1916.18
1713.21
1213.75
1196.07
1212.31
1193.03
1155.62
1011.66
597.393
209.339
1022.38
907.121
895.162
931.448
962.311
968.416
970.846
875.953
528.001
204.144
646.867
654.48
670.411
698.33
730.606
750.75
774.318
720.09
450.824
198.018
490.781
488.077
487.462
498.824
526.868
551.654
582.533
563.493
373.83
190.555
375.013
357.278
342.743
339.064
358.524
383.569
414.273
420.932
302.67
181.946
277.86
250.978
234.276
226.77
237.91
257.47
283.12
302.349
240
171.928
197.456
177.577
169.152
164.884
170.467
181.044
197.862
217.503
191.266
162.097
152.155
147.766
147.924
146.78
148.235
151.574
158.566
169.606
160.759
153.233
144.113
142.995
143.102
142.788
143.061
143.895
145.875
149.38
145.418
145.943
8667.97
7887.61
6773.18
5971.48
5169.26
4335.23
3497.3
2434.88
1143.48
295.911
8324.75
7502.28
6343.83
5610.55
4883.41
4134.94
3416.8
2478.84
1203.05
288.461
7952.08
7104.16
5891.08
5230.63
4570.36
3893.85
3284.13
2475.77
1248.12
284.19
7499.55
6672.63
5420.1
4840.83
4247.09
3626.7
3100.73
2412.35
1269.84
280.868
7089.17
6262.37
4932.26
4424.15
3911.48
3349.84
2889.99
2312.79
1267.87
277.583
6755.16
5926.29
4476.76
4031.22
3602.62
3102.98
2688.53
2191.92
1247.69
273.693
6458.58
5674.45
4066.71
3668.95
3324.82
2892.1
2505.32
2059.15
1213.22
270.958
6154.91
5465.75
3674.35
3337.67
3073.34
2708.01
2342.96
1928.5
1176.29
269.211
5612.18
5242.68
3278.38
3000.59
2823.11
2528.4
2204.61
1807.68
1138.96
268.571
4583.81
4444.57
2808
2648.53
2550.13
2331.78
2074.08
1713.14
1074.16
265.785
3573.05
3443.01
2353.76
2288.72
2255.25
2109.42
1928.08
1634.76
1009.98
263.739
2577.92
2392.54
1915
1926.09
1940.53
1858.29
1752.54
1537.95
926.133
260.531
1564.49
1454.13
1484.91
1566.69
1612.39
1581.18
1541.44
1390.27
805.445
253.661
1038.66
1094
1156.38
1222.81
1284.26
1286.78
1291.46
1188.64
694.834
247.235
802.563
839.449
869.59
904.351
958.797
984.791
1011.57
963
583.428
238.994
632.902
632.361
616.927
609.147
651.704
692.809
732.044
731.685
465.352
227.461
482.355
430.694
391.578
369.518
397.303
438.524
481.584
517.978
348.953
211.309
315.659
255.537
226.156
208.626
225.004
252.523
288.558
344.215
250.639
192.857
175.208
158.987
160.665
155.882
160.446
168.927
186.885
227.518
184.07
173.419
149.419
144.524
145.343
143.827
144.601
147.143
153.827
171.526
150.59
154.706
10265
9784.47
8589.59
7578.57
6566.7
5476.29
4414.17
3111.18
1487.1
404.682
10007.3
9444.72
8173.49
7213.66
6298.7
5314.1
4401.05
3248.19
1587.92
378.707
9686.82
9063.09
7701.29
6790
5949.67
5055.55
4283.31
3292.22
1665.72
369.384
9076.22
8503.16
7113.73
6317.58
5524.81
4666.26
4010.62
3191.2
1703.82
363.098
8565.05
7948.48
6471.55
5767.14
5044.6
4246.71
3670.85
3020.91
1691.51
356.155
8164.19
7538.47
5902.71
5259.33
4626.27
3894.11
3362.05
2829.37
1672.4
351.014
7811.52
7247.33
5427.71
4816.58
4284.2
3629.45
3110.52
2638.99
1660.57
347.084
7437.46
7016.04
4997.45
4455.69
4023.29
3444.52
2924.7
2452.25
1601.24
341.465
6709.64
6763.09
4557.32
4110.52
3797.35
3298.37
2804.88
2307.69
1521.35
334.36
5608.79
5900.77
4010.82
3739.38
3543.66
3139.48
2711.91
2237.45
1450.16
332.11
4528.75
4697.39
3448.53
3342.36
3256.5
2949.31
2606.98
2201.26
1403.91
332.112
3465.81
3382.37
2883.63
2922.83
2928.66
2714.76
2464.82
2149.45
1342.39
333.009
2368.68
2244.51
2328.35
2486.92
2557.74
2429.28
2268.66
2033.74
1222.21
332.866
1600.34
1726.63
1888.66
2047.69
2157.11
2096.16
2003.7
1813.45
1052.8
327.363
1226.41
1356.53
1496.89
1597.23
1704.48
1704.44
1661.57
1523.79
862.57
320.187
976.671
1055.57
1125.79
1116.95
1212.46
1265.17
1270.45
1214.7
704.365
310.357
775.246
760.587
746.202
669.212
748.515
823.912
864.431
898.623
538.351
294.3
553.518
436.667
399.532
317.854
373.264
443.935
490.522
604.424
367.212
268.307
241.402
189.832
202.705
180.802
197.233
217.303
251.524
379.618
241.241
234.821
171.047
149.5
154.552
147.288
149.382
156.744
175.908
265.223
167.266
191.84
11472.2
11636.1
10526.2
9351.66
8089.59
6661.7
5298.19
3727.91
1854.25
630
11326
11412.9
10195.4
9076.4
7933.16
6628.91
5449.96
4020.5
2010.45
535.23
11130.1
11118.4
9748.75
8665.11
7620.5
6424
5417.71
4166.39
2128.41
512.132
10646.5
10508.5
9048.19
8065.4
7068.75
5891.52
5017.13
4019.21
2191.81
496.918
10063.5
9829.54
8216.97
7307.52
6370.61
5254.45
4495.12
3762.75
2194.19
489.24
9575.37
9350.32
7544.16
6641.02
5769.84
4721.16
4026.23
3467.22
2153.92
480
9120.95
8995.02
7011
6090.98
5310.08
4357.66
3668.34
3172.39
2067.95
465.859
8582.12
8711.75
6540.38
5687.38
5017.88
4156.35
3442.34
2917.78
1986.57
451.078
7677.68
8375.19
6060.73
5343.1
4826.78
4054.21
3344.07
2756.03
1895.19
438.701
6576.52
7437.63
5446.48
4980.77
4628.83
3960.81
3301.46
2712.63
1815.29
432.137
5499.13
6150.94
4783.71
4575.18
4394.19
3842.44
3259.45
2725.78
1784.21
429.614
4439.67
4706.44
4093.95
4128
4105.32
3674.32
3182.54
2735.15
1747.12
430.579
3351.82
3362.58
3406.45
3650.44
3753.36
3439.22
3044.47
2681.69
1636.34
432.789
2380.62
2595.67
2841.13
3144.13
3334.91
3128.75
2816.76
2493.75
1473.99
438.63
1764.9
2032.08
2320.74
2578.12
2784.86
2695.07
2455.25
2180.89
1285.79
447.197
1351.74
1567.12
1821.51
1915.12
2092.41
2123.76
1973.63
1792.98
1051.57
446.581
1033.58
1152.78
1296.02
1229.83
1352.43
1453.32
1404.68
1371.19
810.013
440.341
672.939
658.201
709.691
590.035
662.4
782.501
806.676
961.346
566.64
426.761
357.91
255.405
316.384
253.744
269.303
315.331
347.965
651.218
361.599
399.381
260.163
164.769
192.149
159.674
162.738
184.379
217.412
666.127
215.193
354.758
12008.1
13142.1
12353.3
11049.4
9522.8
7679.46
5884.46
4053.32
2147.67
832.363
11904.7
13068.7
12206
10976.2
9607.84
7904.6
6288.16
4528.65
2395.35
818.601
11791.3
12900.8
11826.7
10651.9
9441.02
7878.21
6450.23
4840.91
2568.87
761.62
11645.5
12482.6
11081.8
9918.54
8797.77
7248.41
5971.62
4725.5
2660.39
714.068
11312.5
11915.4
10183.2
8950.97
7874.69
6376.1
5287.39
4422.26
2671.87
703.067
10781.9
11352.4
9429.78
8130.07
7033.81
5601.7
4638.19
4038.94
2643.21
695.653
10117.3
10860.4
8846.21
7482.53
6401.61
5077.14
4149.35
3641.84
2540.4
686.673
9302.8
10403.9
8346.68
7015.25
6028.01
4811.78
3861.73
3303.46
2388.31
651.495
8322.23
9823.95
7839.48
6652.48
5840.7
4727.12
3763.21
3109.97
2271.61
610.988
7265.33
8837.14
7164.96
6298.39
5699.21
4700.19
3761.26
3074.68
2180.24
595.827
6237.96
7606.28
6415.03
5902.22
5545.09
4675.39
3784.78
3124.64
2148.8
581.919
5234.71
6234.3
5600.7
5449.92
5340.24
4612.49
3786.04
3191.22
2125.84
573.151
4225.97
4867.23
4749.82
4943.32
5060.48
4482.52
3727.03
3202.88
2037.63
570.628
3259.51
3819.95
4017.23
4366.86
4679.15
4259.78
3562.42
3064.41
1905.27
576.931
2410.06
2970.77
3326.06
3673.91
4085.67
3856.22
3218.78
2744.97
1688.34
604.777
1682.58
2210.51
2655.41
2850.83
3232.25
3213.92
2675.14
2285.75
1431.78
626.12
1060.1
1478.48
1944.72
1955.99
2194.91
2333.01
1937.15
1716.88
1170.24
639.929
650.733
813.216
1172.95
1015.34
1123.27
1334.65
1088.03
1070.56
870.552
658.954
550.496
362.67
598.36
400.842
416.738
545.834
347.134
454.688
575.083
661.348
643.421
207.465
348.772
202.983
203.55
280.667
160.962
201.074
324.785
723.251
11857.7
14055.2
13761.1
12361.2
10540
8233.97
5917.24
3879.01
2229.67
1273.49
11699.5
14150.6
13937.6
12654.8
11054.2
8844.77
6617.25
4511.79
2569.65
1361.06
11463.1
14083.4
13750.8
12567.9
11198
9134.28
7064.48
4961.37
2798.38
1241.37
11196.4
13807
13043.3
11775.9
10499.1
8540.58
6686.71
4988.36
2967.01
1060.2
10936.2
13417.2
12262.7
10758.1
9441.11
7556.27
5959.05
4781.01
3044.44
1037.49
10611.9
12960.4
11524.1
9809.86
8413.53
6580.56
5191.26
4411
3044.78
1027.82
10079.8
12411.1
10893.3
9031.22
7593.5
5846.17
4569.25
3963.8
2943.53
1071.7
9298.27
11754
10356.8
8461.81
7082.11
5439.69
4183.11
3559.48
2774.68
1045.36
8373.79
10971.2
9815.14
8038.4
6823.39
5301.26
4038.88
3313.23
2598.31
901.607
7384.15
9979.99
9095.56
7662.2
6686.52
5295.66
4043.8
3251.67
2496.17
869.69
6386.95
8842.07
8306.24
7275.18
6597.11
5349.77
4115.18
3303.18
2429.72
832.831
5382.53
7593.92
7424.47
6831.71
6478.51
5395.02
4189
3395.3
2377.29
805.125
4349.37
6291.74
6432.37
6305.87
6270.02
5380.04
4211.93
3446.26
2303.49
783.144
3290.6
5045
5506.13
5674.26
5926.72
5267.57
4122.46
3353.78
2171.71
717.319
2256.14
3835.54
4579.31
4876.45
5325.48
4941.02
3823.77
3067.31
2000.22
796.182
1417.61
2720.61
3626.8
3890.57
4393.39
4309.29
3266.23
2601.01
1757.84
853.928
861.138
1766.52
2676.34
2780.5
3194.88
3366.67
2436.84
2000.65
1498.63
856.281
525.886
1005.76
1805.77
1628.33
1852.45
2217.56
1404.77
1317.86
1226.69
935.254
326.425
510.878
1126
698.728
737.188
1184.05
448.988
636.683
937.789
772.298
210.158
293.856
1004.97
367.602
323.048
733.891
177.632
271.519
583.025
441.194
11238.3
14218.7
14330.5
12818.9
10624.1
8008.46
5223.96
3088.65
1829.45
1144.56
11125.1
14585.4
14983.8
13658.4
11627.3
9088.49
6139.22
3755.93
2210.27
1309.09
10840.9
14679
15181.1
14009.9
12239.4
9658.68
6852.29
4265.3
2511.81
1320.03
10424.9
14431.7
14602.2
13385.6
11796.9
9350.09
6781.38
4478.48
2796.35
1643.9
9935.88
14046.1
13936
12499
10913
8605.63
6324.67
4486.52
2931.85
1559.86
9391.9
13549.6
13237.2
11538.8
9875.58
7642.92
5639.41
4320.97
3022
1384.09
8806.9
12972.7
12569.8
10664.1
8915.47
6743.75
4950.23
3999.56
3032.25
1653.71
8161.05
12284.5
11965.4
9976.26
8227.25
6126.99
4445.64
3606.34
2935.33
1941.93
7432.49
11508.8
11358.1
9444.72
7808.03
5828.04
4200.13
3299.76
2713.23
1391.64
6598.64
10580.6
10649.6
8987.72
7580.76
5748.01
4152.59
3170.5
2571.46
1329.75
5684.15
9527.33
9871.3
8578.65
7487.93
5818.09
4230.06
3177.08
2446.52
1244.7
4730.54
8365.62
8998.44
8134.31
7399.09
5917.18
4342.15
3241.85
2334.47
1208.65
3793.71
7124.26
8014.84
7578.52
7195.51
5940.4
4402.39
3263.7
2206.33
1300.47
2935.29
5862.05
6989.27
6896.4
6831.33
5848.58
4340.83
3136.71
2008.63
787.179
2186.86
4565.22
5884.84
6012.07
6193.38
5518.66
4045.94
2827.51
1880.23
973.049
1573.99
3335.62
4690.39
4884.68
5190.65
4873.85
3450.11
2390.39
1707.98
1231.18
1094.29
2219.41
3479
3599.11
3901.78
3996.45
2567.52
1885.8
1547.13
1028.89
748.881
1293.96
2329.24
2306.07
2461.03
3110.7
1533.21
1340
1461.03
777.161
512.594
611.397
1227.31
1193.72
1126.26
2492.66
536.836
794.403
1585.05
960.581
340.283
291.544
686.245
1012.36
576.756
2727.91
200.352
415.536
1880.91
901.583
10020.1
13374.2
13622.6
11956.1
9499.57
6662.74
3955.63
1938.93
1129.69
763.299
10090.2
14149.8
14798.5
13312.5
10898.6
7945.78
4922.23
2454.18
1418.18
935.4
9944.4
14545.9
15490.8
14137.8
11902.5
8875.47
5670.91
2881.22
1678.54
1075.04
9615.23
14456
15212.9
13940.6
11926.8
9039.87
5919.51
3198.82
1946.33
1237.39
9167.89
14138.3
14666.4
13376.7
11524.8
8819.67
5874.06
3391.31
2145.74
1300.8
8629.46
13620
13993
12637.7
10859.1
8317.47
5611.64
3468.79
2333.56
1304.81
8030.21
13003.5
13293.9
11865.2
10064.6
7628.08
5164.51
3387.08
2449.3
1691.75
7385.14
12284.9
12626.3
11165.7
9331.92
6937.92
4650.63
3206.95
2489.28
2264.51
6706.4
11550.4
11996.7
10566.4
8743.98
6401.96
4279.6
2991.08
2374.51
2244.61
5990.14
10711.5
11303.5
10023.3
8329.87
6124.12
4123.31
2826.01
2225.13
2193.47
5249.45
9782.6
10561.4
9521.13
8128.11
6108.92
4145.74
2744.93
2037.59
1918.35
4500.42
8770.86
9754.25
8986.77
7963.73
6168.33
4236.01
2691.04
1834.7
1516.06
3762.41
7689.16
8870.2
8348.51
7627.43
6074.37
4259.63
2573.57
1625.06
1131.56
3057.26
6575.7
7954.44
7588.43
7096.32
5732.29
4094.56
2361.62
1402.31
589.843
2401.52
5346.48
6915.03
6634.63
6307.04
5116.17
3660.02
2065.26
1257.28
677.365
1832.71
4108.14
5730.28
5421.39
5231.33
4267.5
3042.3
1700.58
1083.15
849.016
1379.71
2887.93
4451.41
3999.26
3959.15
3310.09
2304.66
1334.34
928.164
724.218
1071.47
1811.03
3187.53
2450.97
2559.45
2351.85
1461.52
946.294
763.529
600.621
918.035
937.942
2097.44
954.618
1186.17
1585.98
630.285
577.628
634.783
573.182
918.175
462.03
2014.97
286.936
525.165
1647.32
207.509
276.442
437.792
560.429
8036.04
11257.7
11487.6
9742.35
7345.4
4692.8
2402.05
923.696
496.713
342.3
8291.41
12355.3
12978.7
11302.9
8804.07
5869
3134.95
1195.47
615.112
410.215
8339.78
13071.7
13982.4
12412.4
9985.69
6851.26
3755.67
1446.9
746.308
488.108
8197.01
13282.7
14105
12682.6
10448.6
7382.86
4186.5
1704.05
914.236
596.815
7912.87
13205.3
13835.5
12546.5
10524.7
7617.62
4444.97
1904.05
1067.12
706.652
7513.16
12891.4
13333.4
12135.2
10313.5
7602.29
4547.67
2073.98
1233.26
843.024
7025.84
12341.7
12762.9
11624.7
9875.85
7358.53
4454.56
2122.18
1308.18
942.145
6487.37
11714.6
12151.5
11051.8
9371.19
6986.73
4260.39
2118.35
1356.03
1038.32
5909.96
11004.2
11488.3
10456.4
8846.55
6555.48
4007.72
2033.12
1327.38
1056.65
5306.32
10244.8
10810.5
9865.46
8352.46
6174.2
3798.71
1936.32
1274.67
1033.02
4684.72
9421.82
10097.1
9269.01
7931.38
5924.95
3689.95
1838.62
1177.89
951.52
4057.38
8541.26
9352.57
8649.18
7508.6
5684.27
3602.71
1732.17
1057.62
830.287
3436.87
7606.74
8580.06
7983
6990.95
5284.22
3416.95
1595.62
937.137
695.873
2835.84
6591.94
7745.54
7237.72
6383.79
4730.67
3110.71
1416
795.414
545.227
2272.81
5510.71
6857.82
6383.81
5669.05
4052.45
2716.63
1250.14
692.176
444.452
1768.04
4318.95
5858.34
5387.49
4798.83
3252.67
2230.89
1066.08
594.777
344.922
1355.5
3157
4676.34
4169.78
3831.84
2386.28
1729.63
948.61
609.266
300.617
1054.6
2042.92
3368.06
2792.35
2756.98
1472.86
1184.52
819.577
677.346
262.591
889.356
1045.66
2012.64
1369.53
1643.07
628.172
656.61
701.124
863.047
258.945
882.975
421.098
1101.88
506.429
912.311
196.532
275.681
496.122
1156.41
261.878
5565.77
8171.29
8433.48
6850.78
4864.36
2738.26
1152.72
365.342
209.586
178.967
5906.51
9284.85
9926.14
8269.03
6063.2
3531.69
1514.63
436.069
230.62
192.498
6100.6
10120
11038.6
9413.64
7072.69
4262.42
1854.03
513.542
255.981
207.641
6146.87
10625.8
11607.6
10084.2
7791.05
4877.25
2232.64
618.525
289.63
228.355
6056.66
10862.6
11788.5
10413.4
8258.79
5348.65
2546.51
724.832
326.882
249.916
5842.44
10843.2
11672.2
10436.4
8477.08
5692.98
2844.36
852.571
373.347
276.327
5521.59
10545
11320.8
10186
8378.84
5762.69
2954.15
937.282
413.368
298.044
5129.81
10080.4
10840.4
9784.33
8093.42
5657.55
2975.98
1007.34
453.375
319.131
4687.35
9499
10249.2
9255.99
7659.69
5356.1
2851.07
996.452
462.892
325.952
4209.88
8834.99
9596.6
8663.77
7161.4
4999.86
2691.39
957.04
453.78
322.603
3710.03
8094
8888.78
8018.68
6636.11
4638.46
2512.88
881.443
412.382
303.843
3202.93
7290.25
8146.01
7349.44
6089.37
4246.59
2315.42
784.071
354.036
275.573
2704.48
6437.04
7387.29
6674.4
5509.2
3764.64
2078.41
679.981
300.888
246.769
2230.93
5535.2
6615.27
5983.49
4906.97
3196.39
1774.26
561.362
249.34
217.081
1800.4
4600.53
5856.1
5287.7
4319.98
2636.59
1496.11
502.88
224.831
197.378
1431.14
3664.35
5095.48
4550.41
3757.63
2042.77
1189.51
468.027
208.486
179.381
1139.79
2820.48
4391.4
3800.47
3347.91
1540.19
1002.44
515.34
212.683
170.374
926.177
2044.16
3809.93
2988.49
3075.46
1024.93
805.423
608.574
226.508
162.882
800.297
1339.92
3551.26
2091.83
3044.37
567.787
658.877
789.841
258.387
161.246
774.431
746.833
4097.96
1232.05
3471.7
243.942
439.129
1061.89
308.585
160.889
3165.61
4929.81
5171.65
4037.41
2701.9
1365.06
517.053
213.901
158.59
148.203
3467.74
5774.91
6294.03
4993.16
3409.83
1738.99
633.601
234.173
163.487
150.702
3706.16
6513.36
7293.35
5896.3
4106.77
2127.79
770.757
257.484
169.029
153.571
3870.08
7186.1
8226.36
6806.08
4876.55
2601.12
947.726
286.469
175.602
157.358
3934.68
7656.44
8844.84
7501.68
5536.73
3062.99
1137.46
316.88
182.32
161.364
3900.51
7964.65
9225.82
8029.43
6141.67
3559.28
1363.47
351.754
189.456
166.029
3759.44
7938.32
9240.85
8152.55
6391.16
3869.75
1540.52
379.628
195.049
169.929
3544.75
7716.8
9040.15
8076.42
6425.77
4065.51
1700.87
404.594
199.405
173.433
3271.55
7334.25
8618.68
7735.73
6188.94
3931.01
1717.33
408.501
199.426
174.528
2955.63
6839.1
8070.45
7234.08
5780.87
3670.77
1646.75
397.618
196.124
173.742
2607.55
6241.21
7410.49
6573.91
5209.83
3280.76
1457.98
362.006
188.456
170.446
2241.11
5554.76
6658.37
5826.11
4549.71
2814.33
1205.36
314.634
178.645
165.545
1872.34
4795.02
5828.13