/*--------------------------------*- C++ -*----------------------------------*\
  =========                 |
  \\      /  F ield         | OpenFOAM: The Open Source CFD Toolbox
   \\    /   O peration     | Website:  https://openfoam.org
    \\  /    A nd           | Version:  7
     \\/     M anipulation  |
\*---------------------------------------------------------------------------*/
FoamFile
{
    version     2.0;
    format      ascii;
    class       volScalarField;
    location    "1";
    object      ILambda_6_0;
}
// * * * * * * * * * * * * * * * * * * * * * * * * * * * * * * * * * * * * * //

dimensions      [1 0 -3 0 0 0 0];

internalField   nonuniform List<scalar> 
4000
(
183.008
173.502
156.336
142.493
142.381
142.394
142.416
142.441
142.454
142.433
515.896
429.538
197.251
142.748
142.476
142.534
142.564
142.563
142.542
142.471
784.124
565.346
233.527
143.129
142.807
143.039
142.766
142.654
142.584
142.48
835.44
557.055
257.453
143.97
143.525
143.652
142.887
142.701
142.601
142.479
752.922
544.429
264.648
145.482
145.39
143.877
142.948
142.727
142.607
142.474
637.281
531.969
263.986
148.642
147.412
143.874
142.98
142.743
142.608
142.469
592.35
519.735
257.065
151.781
148.165
143.799
143.003
142.757
142.608
142.463
569.152
500.668
254.449
157.826
148.107
143.755
143.022
142.767
142.606
142.459
530.006
489.565
258.779
162.233
147.776
143.764
143.036
142.775
142.605
142.456
521.331
494.52
276.406
163.393
147.515
143.795
143.044
142.78
142.604
142.454
520.118
498.43
282.272
163.738
147.434
143.806
143.047
142.781
142.603
142.454
515.537
492.662
268.543
164.072
147.566
143.784
143.046
142.779
142.603
142.454
541.643
493.936
259.718
161.744
147.913
143.757
143.038
142.773
142.604
142.456
556.481
507.5
257.374
156.097
148.317
143.77
143.025
142.765
142.605
142.459
568.607
519.632
263.123
152.461
148.353
143.851
143.01
142.755
142.606
142.464
661.933
533.508
267.819
148.869
146.992
143.96
142.995
142.744
142.607
142.469
793.534
551.445
269.554
146.42
145.016
143.986
142.973
142.733
142.607
142.475
893.588
614.403
257.642
144.728
143.841
143.573
142.924
142.718
142.606
142.481
808.153
585.884
230.547
143.731
143.133
142.999
142.773
142.675
142.597
142.486
460.352
328.971
185.227
143.091
142.753
142.685
142.615
142.59
142.556
142.481
161.311
154.513
146.268
142.393
142.365
142.372
142.381
142.388
142.385
142.369
338.785
270.981
159.3
142.513
142.433
142.458
142.469
142.457
142.432
142.388
857.205
662.513
175.118
142.76
142.639
142.684
142.585
142.518
142.463
142.397
1545.54
1125.36
190.395
143.271
143.031
142.989
142.672
142.558
142.479
142.399
1820.34
1174.53
199.369
144.138
143.77
143.18
142.725
142.58
142.485
142.399
1652.9
1075.74
202.034
145.649
144.651
143.249
142.756
142.593
142.487
142.397
1415.02
1010.89
199.62
147.248
145.194
143.252
142.776
142.602
142.487
142.395
1248.07
818.581
197.247
149.571
145.353
143.247
142.791
142.607
142.486
142.393
1092.71
623.914
197.998
151.703
145.3
143.254
142.802
142.611
142.485
142.392
983.729
558.759
203.926
152.886
145.226
143.279
142.809
142.613
142.484
142.391
940.705
540.152
207.661
153.35
145.184
143.292
142.812
142.614
142.483
142.39
954.723
536.99
204.756
153.399
145.197
143.278
142.812
142.613
142.483
142.39
1030.44
664.43
201.579
152.638
145.307
143.263
142.809
142.611
142.483
142.391
1149.28
874.386
200.958
150.817
145.451
143.258
142.802
142.608
142.484
142.392
1376.44
975.435
203.705
149.2
145.472
143.283
142.794
142.605
142.485
142.394
1720.84
1125.34
205.897
147.511
145.063
143.322
142.786
142.601
142.486
142.396
1875.17
1279.88
204.829
146.018
144.366
143.329
142.776
142.596
142.487
142.398
1524.19
1012.7
197.39
144.777
143.749
143.183
142.757
142.591
142.488
142.401
993.081
603.522
185.682
143.883
143.254
142.939
142.696
142.576
142.487
142.403
593.778
356.274
168.707
143.273
142.908
142.738
142.612
142.54
142.474
142.402
152.375
146.186
143.439
142.361
142.355
142.359
142.364
142.366
142.36
142.351
216.231
181.894
147.464
142.421
142.403
142.419
142.431
142.414
142.385
142.36
435.288
311.405
153.515
142.569
142.531
142.553
142.531
142.456
142.404
142.365
904.234
615.363
161.45
142.89
142.764
142.751
142.609
142.484
142.416
142.368
1951.7
1213.2
173.378
143.488
143.147
142.951
142.655
142.502
142.422
142.368
2353.97
1541.31
198.127
144.445
143.613
143.065
142.681
142.513
142.425
142.368
2253.37
1619.74
199.595
145.378
144.025
143.119
142.702
142.521
142.426
142.367
2020.37
1408.44
188.04
146.393
144.277
143.162
142.719
142.527
142.426
142.367
1668.07
879.04
178.24
147.488
144.515
143.192
142.733
142.531
142.426
142.366
1400.76
596.764
176.641
148.652
144.647
143.19
142.744
142.534
142.425
142.366
1263.97
500.188
177.362
149.172
144.681
143.194
142.748
142.535
142.425
142.365
1258.31
559.448
177.2
148.906
144.626
143.214
142.747
142.534
142.424
142.365
1483.97
1019.1
182.775
148.468
144.476
143.206
142.74
142.531
142.424
142.365
1815.02
1410.8
195.943
147.823
144.4
143.178
142.731
142.528
142.424
142.366
2248.51
1581.2
206.979
147.102
144.286
143.164
142.72
142.525
142.424
142.366
2481.49
1520.38
191.032
146.157
144.077
143.148
142.716
142.522
142.424
142.367
1834.1
1057.83
178.554
145.211
143.766
143.08
142.712
142.52
142.425
142.368
1298.27
699.797
170.509
144.393
143.445
142.97
142.695
142.518
142.425
142.369
879.284
460.519
164.099
143.753
143.147
142.833
142.64
142.512
142.425
142.37
573.152
310.876
157.091
143.279
142.902
142.702
142.573
142.487
142.42
142.37
145.592
143.53
142.651
142.353
142.355
142.365
142.389
142.444
142.563
142.865
168.61
154.322
143.885
142.392
142.403
142.438
142.501
142.584
142.674
142.902
252.872
194.797
146.023
142.487
142.503
142.559
142.631
142.628
142.567
142.535
451.347
295.487
149.153
142.683
142.68
142.753
142.784
142.618
142.489
142.417
929.11
539.607
155.014
143.073
142.96
142.995
142.881
142.6
142.451
142.378
1934.14
1182.88
171.008
143.742
143.356
143.266
142.936
142.592
142.437
142.366
2502.7
1721.8
207.852
144.781
143.757
143.422
142.97
142.595
142.432
142.362
2636.97
1910
211.852
145.609
144.121
143.536
143.02
142.603
142.432
142.36
2240.89
1255.68
190.688
146.228
144.458
143.604
143.069
142.612
142.433
142.36
1785.82
741.19
174.568
147.279
144.967
143.653
143.092
142.618
142.435
142.359
1523.02
545.352
169.745
147.837
145.15
143.674
143.102
142.621
142.435
142.359
1554.16
718.364
177.211
147.498
144.849
143.668
143.102
142.618
142.434
142.359
2008.04
1471.79
201.091
147.245
144.575
143.648
143.072
142.611
142.432
142.359
2420.77
1761.57
217.443
146.819
144.321
143.584
143.025
142.602
142.429
142.359
2553.43
1600.53
194.635
145.98
144.08
143.508
142.993
142.592
142.427
142.359
1961.94
1056.92
175.529
145.215
143.802
143.326
142.96
142.587
142.424
142.359
1424.84
704.223
164.214
144.547
143.533
143.142
142.908
142.588
142.423
142.36
1014.53
485.853
157.935
143.999
143.284
142.967
142.794
142.59
142.422
142.36
710.299
346.755
153.92
143.556
143.064
142.829
142.705
142.621
142.576
142.74
492
258.713
150.534
143.207
142.877
142.71
142.622
142.59
142.617
142.766
143.388
142.709
142.435
142.36
142.381
142.431
142.552
142.845
143.542
145.156
151.397
145.981
142.832
142.419
142.485
142.627
142.913
143.462
144.381
145.933
182.337
158.593
143.599
142.521
142.624
142.82
143.138
143.552
143.699
143.588
260.375
191.219
144.808
142.691
142.827
143.069
143.384
143.471
143.141
142.794
450.941
271.687
147.129
143.003
143.131
143.427
143.659
143.369
142.846
142.524
917.36
501.006
153.455
143.568
143.62
143.908
143.884
143.309
142.714
142.431
1974.65
1198.71
174.931
144.454
144.176
144.42
144.095
143.308
142.665
142.399
2684.32
1888.11
217.586
145.926
144.851
144.717
144.213
143.342
142.65
142.388
2708.11
1744.52
213.835
146.775
145.381
144.948
144.284
143.404
142.652
142.384
2170.94
984.833
186.413
147.841
146.244
145.328
144.307
143.453
142.656
142.384
1803.63
679.764
176.427
148.493
146.629
145.464
144.323
143.47
142.658
142.383
2015.53
1196.26
197.315
148.274
146.179
145.233
144.346
143.448
142.654
142.383
2475.9
1767.84
222.692
147.978
145.761
145.057
144.327
143.388
142.644
142.382
2628.18
1631.82
201.044
146.861
145.217
144.903
144.26
143.324
142.635
142.383
2019.12
1068.57
178.433
145.882
144.74
144.53
144.076
143.259
142.624
142.383
1479.57
707.055
164.554
145.067
144.237
144.065
143.843
143.206
142.616
142.385
1067.99
487.352
156.472
144.42
143.809
143.634
143.518
143.142
142.612
142.388
767.818
353.477
151.88
143.913
143.448
143.272
143.168
143.012
142.613
142.387
553.268
270.295
149.118
143.524
143.191
143.077
143.088
143.252
143.682
144.99
402.536
218.081
147.163
143.227
143.008
142.957
143.039
143.302
143.849
144.79
142.682
142.467
142.398
142.417
142.521
142.77
143.37
144.813
148.283
156.531
145.425
143.503
142.609
142.619
142.924
143.573
144.911
147.58
152.624
161.24
156.483
147.507
142.998
142.867
143.307
144.104
145.436
147.373
149.215
148.968
185.986
158.173
143.625
143.148
143.667
144.474
145.636
146.707
146.426
144.765
259.105
184.68
144.797
143.615
144.127
145.007
146.054
146.267
144.918
143.306
444.171
259.689
147.606
144.41
144.967
145.892
146.723
146.067
144.234
142.789
1017.84
528.247
156.616
145.447
145.96
147.046
147.255
146.068
143.984
142.603
2173.21
1449.38
202.868
147.128
146.865
147.646
147.522
146.174
143.912
142.529
2762.71
1888.92
223.665
148.802
147.785
148.066
147.714
146.266
143.912
142.497
2432.08
1197.26
200.574
150.265
148.973
148.675
147.914
146.275
143.958
142.486
2099.63
883.956
190.652
151.155
149.57
148.94
147.988
146.288
143.972
142.483
2413.01
1550.02
215.992
151.046
149.11
148.64
147.904
146.32
143.925
142.481
2689.17
1756.65
224.761
150.128
148.423
148.366
147.796
146.255
143.875
142.488
2171.45
1147.92
190.201
148.694
147.801
148.139
147.65
146.069
143.819
142.501
1559.08
739.044
170.5
147.504
147.011
147.265
147.189
145.796
143.745
142.514
1114.14
499.892
159.427
146.33
145.981
146.182
146.285
145.442
143.681
142.537
799.688
358.49
153.043
145.304
145.073
145.149
145.236
144.887
143.617
142.562
581.003
273.891
149.332
144.517
144.304
144.282
144.265
144.097
143.477
142.566
430.261
222.459
147.142
143.986
143.89
144.058
144.577
145.863
148.989
156.447
327.026
190.719
145.758
143.664
143.722
144.106
144.982
146.728
149.924
154.989
142.472
142.416
142.438
142.543
142.797
143.374
144.668
147.543
153.849
167.365
143.464
142.858
142.726
143.01
143.656
144.887
147.08
150.595
155.043
156.266
147.476
144.322
143.184
143.593
144.506
146.011
148.211
150.886
152.498
149.176
158.677
148.149
143.862
144.317
145.358
147.017
149.175
151.17
150.398
145.702
186.753
157.74
145.444
145.789
146.796
148.549
150.875
152.123
149.184
144.118
258.327
183.358
147.793
147.582
148.625
150.882
153.408
153.127
148.597
143.373
490.669
274.865
152.785
149.234
150.767
153.455
155.448
154.044
148.461
143.043
1405.72
773.07
178.176
151.121
152.27
155.056
156.486
154.485
148.442
142.872
2432.26
1650.62
239.643
153.461
153.383
155.518
156.686
154.953
148.601
142.779
2486.1
1344.98
223.813
155.449
154.85
156.078
156.779
155.281
148.675
142.734
2336.93
1155.84
216.375
156.638
155.607
156.372
156.876
155.401
148.697
142.719
2650.63
1685.15
251.1
156.553
155.114
156.228
157
155.292
148.667
142.725
2469.58
1331.94
217.817
155.269
154.663
156.451
157.237
154.918
148.454
142.757
1748.05
833.223
186.729
154.021
154.308
156.177
157.002
154.556
148.279
142.814
1216.39
544.338
169.632
152.875
153.109
154.646
155.713
153.597
147.972
142.874
854.555
379.575
159.947
151.074
151.263
152.203
153.041
152.066
147.61
142.986
611.891
283.983
153.66
148.751
148.943
149.565
150.064
149.718
147.004
143.08
450.154
227.815
149.786
146.889
146.987
147.252
147.375
147.112
145.918
143.117
342.618
194.333
147.395
145.621
145.746
146.062
146.519
147.157
147.847
147.059
271.085
174.071
145.954
144.945
145.323
146.145
147.707
150.691
156.531
168.48
142.459
142.445
142.491
142.628
142.919
143.488
144.528
146.265
148.644
149.889
143.046
142.911
143.017
143.39
144.173
145.513
147.531
150.224
152.549
149.784
145.221
144.068
143.968
144.57
145.868
147.898
150.396
153.389
154.565
147.663
151.888
147.603
146.506
147.244
149.286
152.171
155.146
158.774
156.697
145.99
164.554
153.861
150.821
152.218
154.38
157.923
162.234
165.423
158.092
144.836
193.927
165.51
155.462
156.73
159.187
164.082
170.811
171.854
159.906
144.222
289.616
200.019
159.535
160.17
162.794
169.368
177.058
176.511
161.637
143.879
814.291
407.575
174.591
162.18
165.444
172.171
179.395
179.488
162.928
143.658
2007.8
1334.95
251.256
164.647
166.58
172.719
179.243
180.625
162.314
143.36
2439.7
1435.59
250.75
166.618
167.657
172.411
177.29
178.853
161.806
143.238
2530.4
1415.05
248.944
167.751
168.079
172.06
176.442
178.241
161.629
143.194
2761.75
1682.69
279.776
167.797
167.815
172.462
178.177
180.132
161.846
143.195
2170.1
1064.65
226.537
166.988
168.451
173.987
180.473
180.776
162.9
143.404
1461.15
660.858
194.84
167.303
169.097
175.258
181.945
179.866
162.432
143.55
988.538
439.923
179.865
167.039
169.231
174.326
179.905
177.08
160.928
143.666
686.039
318.169
170.724
165.074
167.021
170.47
173.287
171.56
158.612
143.767
492.787
248.287
162.94
160.05
161.812
164.049
164.926
164.117
156.29
143.997
367.203
206.29
156.278
154.785
155.78
156.804
156.868
156.07
152.56
144.103
286.378
181.352
151.741
150.908
151.425
151.871
151.881
151.491
150.088
145.351
234.314
166.378
148.811
148.468
149.015
149.718
150.559
151.588
152.41
151.177
142.555
142.523
142.537
142.656
142.891
143.319
144.012
145.011
146.214
145.435
143.835
143.735
143.722
144.036
144.65
146.064
148.457
151.867
155.293
147.359
152.278
148.37
146.853
147.252
148.603
151.984
157.935
164.227
164.313
147.189
168.299
164.281
161.385
160.779
162.413
167.998
176.986
184.501
174.777
146.688
179.077
176.209
175.221
176.98
180.085
186.842
199.305
206.119
183.355
146.336
191.062
182.528
182.084
187.75
193.061
202.045
219.437
224.333
190.557
145.58
236.109
197.786
186.967
192.874
198.323
212.641
235.014
240.926
200.052
145.379
592.05
307.968
196.844
193.425
201.275
217.083
240.859
249.954
206.251
145.15
1747.41
1113.15
275.545
195.868
199.495
213.928
232.279
242.51
198.386
144.67
2377.2
1486.05
287.333
194.004
196.667
207.752
220.272
227.408
194.682
144.458
2652.49
1602.47
290.11
192.691
194.067
203.168
213.948
221.828
193.397
144.377
2833.99
1644.66
313.057
194.206
193.64
204.098
218.923
231.504
193.964
144.372
2076.44
982.122
252.518
194.192
198.725
212.334
234.544
246.416
204.108
144.752
1331.06
599.261
222.334
199.733
205.424
221.596
245.153
250.799
204.536
145.018
873.983
407.553
211.315
205.994
213.432
225.886
244.187
243.026
197.495
144.997
607.114
314.21
209.365
208.607
214.163
222.518
233.439
229.661
190.552
145.49
448.916
261.915
201.742
200.276
203.223
208.876
214.38
210.373
182.758
145.583
340.336
218.157
182.888
182.362
184.302
187.474
190.09
187.022
172.069
145.625
265.558
188.893
169.02
168.941
169.94
171.11
171.244
168.716
162.552
146.192
219.237
171.008
159.676
159.784
160.396
160.776
160.283
158.289
154.455
147.043
142.934
142.709
142.613
142.735
142.896
143.249
143.849
144.813
145.554
144.677
149.377
146.777
145.706
146.562
146.79
149.175
154.082
162.496
161.317
147.363
218.235
182.91
159.039
162.121
163.398
173.863
191.777
208.081
186.749
148.127
274.965
246.799
222.245
226.077
224.883
238.4
257.203
264.685
216.281
148.472
275.721
281.423
269.076
275.254
278.244
291.354
315.87
320.647
245.978
149.423
262.379
269.79
277.74
296.835
305.361
321.867
358.516
363.386
265.342
148.31
282.589
269.387
272.088
286.826
303.545
329.892
376.197
378.968
264.052
146.989
607.544
345.239
270.104
276.301
289.798
321.586
365.233
379.095
265.729
146.408
1710.51
1109.23
346.141
266.122
275.88
303.174
336.633
359.299
292.478
149.455
2393.04
1584.25
355.421
252.537
259.767
280.976
305.033
323.286
290.888
149.19
2764.14
1770.75
355.446
243.069
247.812
265.684
287.675
309.68
289.974
149.08
2956.15
1731.11
375.316
243.374
246.596
267.432
298.766
336.445
299.432
150.239
2153.33
1022.24
308.636
249.668
257.345
287.825
334.251
368.72
276.979
147.352
1342.04
629.884
283.999
266.584
286.153
320.307
373.618
385.346
268.891
146.577
869.733
452.068
294.696
307.028
325.608
352.514
395.794
393.104
274.278
147.221
637.767
409.109
327
338.74
350.644
368.373
392.456
376.97
266.563
148.78
545.584
390.78
332.908
340.494
342.324
353.831
361.429
337.743
244.378
148.377
455.913
327.726
276.795
281.782
283.012
291.615
297.347
282.746
215.844
148.023
326.289
252.493
230.04
232.533
233.186
235.497
233.555
221.85
186.467
148.126
249.589
208.032
197.769
198.593
198.487
197.35
192.272
181.207
163.089
147.003
144.368
143.36
143.148
143.188
143.885
144.196
144.896
146.523
146.662
144.95
184.696
162.523
160.157
158.897
171.7
175.56
181.933
201.322
177.553
148.196
491.527
349.894
269.381
227.959
271.916
312.767
326.771
332.508
229.69
149.334
545.545
511.655
453.075
428.024
459.911
485.904
500.938
460.706
295.704
151.735
514.346
545.789
554.629
561.728
575.771
589.419
603.061
543.389
325.189
150.403
468.31
500.276
547.347
600.4
610.467
619.39
643.403
585.748
337.366
148.984
477.375
462.984
492.55
539.151
565.19
592.456
642.973
623.846
398.479
151.654
890.089
518.407
451.893
468.832
491.811
535.601
594.4
613.937
433.349
155.121
1898.68
1304.22
517.528
420.969
438.209
474.944
518.494
541.257
435.577
153.555
2598.55
1926.25
524.318
378.219
386.839
415.093
445.139
461.876
406.521
152.024
3026.77
2176.1
514.512
347.693
351.114
375.023
403.375
428.435
396.623
151.494
3216.36
2013.69
513.578
338.583
344.599
373.539
418.242
470.647
425.206
152.591
2475.44
1198.01
421.314
346.204
364.126
415.744
494.027
566.059
445.325
155.675
1537.57
754.17
402.032
404.332
446.345
505.847
597.633
633.825
435.644
153.704
1004.86
591.131
477.471
536.698
571.217
612.205
672.66
638.509
375.972
149.752
797.23
630.484
614.435
653.022
673.538
695.163
713.7
629.075
356.6
149.578
809.704
740.438
702.018
698.505
716.301
723.478
708.783
596.488
344.706
151.783
902.49
711.879
611.34
567.597
606.091
628.194
595.297
506.181
292.486
150.47
607.402
487.2
442.261
430.638
452.141
446.607
411.068
356.248
232.685
150.201
404.334
345.508
326.683
323.682
325.757
311.956
282.313
240.03
182.133
148.149
146.649
146.072
147.495
151.893
163.086
190.883
261.895
440.104
241.649
381.052
222.403
208.042
210.739
222.463
247.892
281.951
346.766
397.554
268.346
227.062
721.439
645.996
543.267
501.611
583.698
671.023
711.792
630.523
322.677
176.677
1046.54
1017.39
981.42
972.376
1028.75
1052.96
1025.06
816.28
405.867
161.473
1019.96
1037.68
1126.53
1218.85
1242.61
1218.47
1155.33
925.61
471.902
157.021
954.543
973.297
1092.9
1252.48
1257.21
1202.65
1160.01
974.037
524.081
156.966
1012.71
899.433
963.047
1078
1096.89
1073.38
1080.51
970.138
545.889
154.383
1487.36
957.003
829.2
868.988
883.736
901.027
934.038
900.102
579.395
155.794
2312.77
1755.89
834.144
720.223
730.556
753.49
776.418
759.505
576.032
156.98
2966.97
2407.34
807.476
616.687
612.546
628.461
641.588
628.387
518.646
155.052
3402.27
2672.24
767.037
542.915
531.854
545.721
562.526
568.022
496.962
154.277
3579.49
2467.92
727.148
502.057
502.747
530.286
573.362
620.404
546.105
156.213
3000.26
1566.72
603.833
511.439
535.876
596.535
692.334
774.797
582.992
156.534
2024.68
1035
611.149
649.896
714.566
780.212
896.327
919.839
575.36
154.805
1392.53
878.198
788.357
952.318
1008.22
1033.1
1095.83
1004.08
568.022
156.445
1197.43
1003.46
1094.64
1255.12
1286.89
1279.09
1251.6
1034.13
532.454
155.147
1413.19
1370.86
1424.57
1469.26
1479.73
1438.55
1336.34
1015.94
484.741
154.486
1532.98
1438.32
1344.24
1296.27
1336.33
1332.85
1217.44
910.262
401.203
153.408
1105.54
1012.46
961.598
945.922
952.146
907.28
803.448
608.301
306.656
153.652
743.124
685.137
658.173
645.483
628.239
577.405
495.079
389.798
306.633
385.54
393.395
152.868
155.004
158.85
172.194
196.932
239.479
296.367
307.27
472.807
320.754
276.468
318.166
317.852
337.883
391.244
465.702
482.898
369.492
281.081
741.284
883.301
938.824
962.787
1072.53
1216.97
1229.97
966.215
462.449
205.235
1477.99
1612.72
1706.07
1829.21
1952.42
1952.77
1763.9
1290.18
569.058
176.77
2022.44
1973.34
2011.27
2227.42
2365.62
2229.23
1949.08
1434.73
634.252
164.872
2243.06
2003.08
1980.41
2252.45
2335.78
2125.28
1886.35
1474.24
715.135
161.6
2344.37
1912.42
1776.36
1966.02
1991.46
1823.39
1686.34
1425.68
770.897
164.201
2585.21
1957.87
1526.36
1571.26
1552.22
1464.71
1400.01
1256.43
754.203
161.256
3086.19
2518.75
1435.11
1250.2
1218.14
1171.42
1126.53
1030.72
732.009
162.576
3550.38
2975.21
1325.71
1025.24
976.987
944.211
908.674
839.127
652.38
163.587
3892.33
3154.57
1217.67
869.497
818.514
797.031
780.112
747.687
620.559
163.697
4043.64
2981.54
1120.29
779.666
753.963
757.172
781.137
806.947
680.567
163.151
3670.39
2247.19
947.067
797.239
814.355
854.467
942.365
1009.89
725.715
161.11
3012.13
1716.71
979.115
1038.17
1133.14
1164.56
1266.1
1265.71
782.379
164.133
2534.54
1616.64
1274.88
1523.86
1674.67
1635.26
1638.02
1451.42
775.108
161.199
2380.89
1886.64
1811.15
2096.58
2258.89
2155.19
1980
1549.24
715.542
159.286
2389.12
2318.68
2424.92
2625.99
2692.65
2537.7
2204.91
1573.05
666.282
159.886
2217.26
2359.43
2450.41
2504.76
2529.09
2446.98
2119.89
1437.1
562.475
159.4
1766.33
1826.8
1874.1
1852.05
1794.07
1653.66
1378.54
929.847
415.041
158.888
1291.94
1291.96
1282.68
1238.28
1159
1015.72
801.811
541.148
314.56
219.544
277.051
298.381
520.502
167.318
178.08
197.95
233.621
290.265
381.243
606.225
365.652
446.889
581.485
464.045
513.77
544.846
652.133
730.64
777.389
1071.38
804.689
1174.7
1531.64
1671.6
1887.39
1953.73
1866.39
1472.08
1060.53
1183.1
1580.49
2175.07
2582.63
2941.35
3228.63
3129.72
2695.54
1892.9
1011.4
500.18
2429.82
2972.75
3245.57
3622.83
3862.04
3570.9
2957.75
2080.75
987.431
277.965
3192.35
3436.27
3421.95
3712.48
3819.83
3403.8
2831.43
2111.36
1030.75
207.282
3737.47
3586.96
3225.21
3319.43
3290.27
2897.34
2488.29
1987.98
1049.48
184.891
4035.25
3596.99
2879.81
2714.22
2592.36
2298.16
2035.33
1717.82
1009.79
177.242
4314.51
3788.02
2661.21
2161.84
2004.49
1797.39
1613.99
1398.61
938.44
175.987
4541.88
3916.45
2385.07
1736.91
1563.41
1417.59
1292.4
1149.99
866.808
182.685
4710.47
3916.07
2150.82
1445.6
1283.09
1180.23
1105.87
1031.67
835.624
184.885
4788.28
3759.64
1997.24
1296.62
1183.59
1115.25
1093.8
1086.5
868.667
178.618
4561.77
3301.61
1778.96
1334.69
1297.78
1263.09
1303.72
1330.6
942.296
175.153
4115.08
2943.11
1833.41
1695.41
1775.85
1731.81
1754.65
1678.8
1019.61
174.409
3595.06
2861.26
2253.93
2402.92
2592.92
2470.72
2320.88
1980.27
1044.4
173.491
3215.87
3054.88
2948.13
3278.01
3520.77
3301.25
2867.33
2137.51
978.301
170.242
3104.19
3418.38
3696.04
4098.42
4284
3943.09
3238.66
2136.17
880.446
166.4
3017.06
3503.14
3962.74
4220.65
4284.75
3912.26
3174.64
2035.73
1001.49
876.218
2638.59
2950.04
3212.4
3219.22
3095.67
2696.26
2168.06
1513.92
1012.96
1125.92
2086.73
2209.15
2260.89
2177.48
1991.11
1676.21
1308.01
953.821
763.783
855.189
257.442
330.327
494.851
752.879
656.391
1407.27
379.709
660.339
1316.81
892.379
451.841
656.01
920.904
1029.72
1097.46
1383.98
959.832
1163.15
1306.88
1329.98
1060.78
1732.06
2453.85
2771.88
2942.48
2893.33
2379.01
1805.19
1259.16
828.608
1988.49
3035.18
3878.29
4418.16
4660.68
4306.5
3465.7
2386.89
1602.98
1481.79
3002.34
4220.51
4972.37
5496.71
5659.66
5086.03
4034.5
2784.16
1837.08
1672.48
3884.96
5041
5501.67
5797.48
5778.3
5053.94
4006.34
2846.58
1613.87
676.624
4524.73
5435.45
5441.2
5371.29
5143.74
4411.88
3566.84
2694.4
1429.21
345.023
4896.52
5469.64
5042.69
4572.67
4202.29
3576.55
3031.51
2578.73
1903.59
1742.9
5154.28
5436.73
4599.89
3750.44
3313.26
2825.77
2459.97
2148.25
1585.69
693.593
5288.25
5298.48
4100.95
3025.73
2583.67
2214.93
1967.98
1734.65
1306.57
359.307
5295.75
5087.64
3678.18
2527.19
2119.37
1833.49
1669.11
1511.98
1164.94
251.292
5180.86
4839.11
3412.73
2324.1
1986.89
1746.89
1634.44
1539.38
1136.62
209.666
4869.08
4484
3232.49
2416.35
2206.2
2016.84
1991.99
2045.06
1771.97
1697.21
4488.91
4262
3365.97
2944.15
2902.2
2724.07
2600.81
2416.21
1601.18
673.696
4178.94
4274.4
3919.65
3920.64
4033.74
3754.84
3307.59
2611.12
1409.99
342.71
4063.13
4554.68
4739.6
5079.34
5250.83
4803.09
3959.17
2785.7
1614.66
1271.85
4143.47
4965.03
5580.99
6078.42
6163.45
5478.72
4296.54
2811.67
1702.09
1533.17
4233.03
5197.57
6072.85
6418.76
6255.1
5447.1
4113.16
2537.89
1363.63
809.506
3899.64
4546.03
5036.76
5041.54
4683.88
4064.92
2929.14
2020.06
1382.8
1318.45
3231.22
3520.17
3628.63
3457.65
3078.3
2538.06
1860.5
1367.52
1095.16
1064.12
661.647
641.463
1252.43
573.328
772.167
1352.16
380.188
526.33
707.114
715.543
799.208
1145.4
1517
1452.2
1541.12
1663.1
1167.7
1125.23
1110.67
1054.77
1611.1
2668
3592.29
3765.5
3697.4
3340.96
2539.3
1732.01
1289.5
1080.02
2822.17
4426.55
5573.84
5874.59
5686.2
4925.7
3713.6
2387.25
1728.07
1552.14
4143.08
6067.48
7141.21
7398.13
7088.25
6038
4518.79
2945.36
2102.78
1863.42
5277.38
7233.46
8065.58
8134.52
7696.29
6483.88
4833.15
3133
1866.29
869.568
6076.33
7867.39
8254.73
8027.04
7446.51
6222.84
4675.9
3056.94
1602.48
453.75
6463.24
7915.82
7892.92
7342
6639.96
5517.7
4301.21
3267.67
2431.51
2366.82
6607.21
7763.09
7348.92
6437.91
5612.03
4615.85
3783.03
3243.7
2739.1
2721.65
6563.88
7428.77
6668.9
5492.69
4572.68
3763.76
3295.94
3097.73
2904.3
3120.27
6391.77
7020.71
6054.57
4788.77
3913.9
3273.22
3020.35
3009.59
2957.66
3219.47
6153.84
6647.81
5669.45
4518.37
3843.76
3302.31
3055.12
3031.31
2841.4
2864.05
5850.32
6308.34
5501.64
4666.74
4251.56
3832.37
3528.97
3373.6
3099.57
3136.7
5625.72
6269.25
5776.07
5298.67
5095.3
4669.32
4104.31
3361.62
2375.62
1281.52
5539.74
6466.35
6484.58
6353.04
6202.96
5557.17
4520.68
3172.48
1787.97
587.879
5658.23
6929.15
7412.01
7498.63
7240.8
6286.69
4828.75
3119.31
1894.34
1439.41
5905.96
7412.53
8291.66
8435.41
7948.21
6694.39
4953.46
3063.94
2003.83
1683.88
6117.25
7683.49
8736.73
8709.96
7939.64
6506.91
4637.68
2720.15
1686.67
1279.48
5734.67
6771.63
7277.08
7027
6176.54
5008.65
3532.71
2236.41
1520.73
1235.23
4831.71
5268.69
5302.88
4885.31
4150.3
3253.91
2310.03
1591.15
1187.29
954.846
705.374
473.795
585.383
426.177
509.129
594.557
396.999
561.528
900.429
408.908
996.989
1368.94
1632.98
1577.03
1519.77
1448.29
1120.43
950.172
870.373
584.811
2117.06
3405.86
4190.43
4107.04
3741.96
3093.85
2179.59
1341.06
951.059
663.675
3713.73
5692.24
6681.13
6528.27
5874.34
4712.36
3238.36
1873.1
1257.97
917.306
5433.73
7816.47
8713.36
8450.69
7561.12
6022.05
4123.99
2384.46
1577.6
1137.79
6958.55
9474.37
10019.4
9624.02
8636.84
6872.45
4738.53
2768.13
1722.31
1127.44
8046.98
10417.9
10625.4
10059.7
8948.32
7144.62
4943.95
2895.21
1714.36
1103.99
8642.93
10758.7
10642.3
9869.93
8700.45
7002.13
5002.3
3256.06
2291.06
1855.56
8839.98
10661.5
10243
9281.69
8091.1
6552.18
4882.6
3519.53
2734.89
2290.67
8750.78
10299
9620.67
8499.07
7287.94
5940.87
4657.77
3674.67
3073.84
2625.83
8485
9817.14
8980.72
7817.39
6695.89
5562.56
4546.01
3770.71
3252.37
2762.42
8158.91
9376.72
8535.7
7492.64
6586.5
5627.73
4646.34
3812.78
3206.73
2624.98
7857.28
9096.37
8403.07
7582.56
6886.37
6027.37
4965.98
3955.43
3238.96
2563.5
7685.27
9069.8
8631.33
8066.9
7488.92
6537.77
5194.98
3750.22
2694.91
1800.6
7721.03
9367.78
9251.69
8852.52
8241.89
6979.83
5239.4
3378.14
2117.79
1265.19
7935.69
9804.47
10127.8
9735.89
8839.99
7212.75
5105
3008.27
1797.76
1133.69
8242.86
10238.9
10860.7
10344
9128.7
7186.84
4884.37
2769.43
1684.09
1106.92
8452.18
10369.4
11049.7
10313.6
8807.14
6705.19
4394.83
2387.91
1414.09
888.9
7941.47
9167.63
9340.74
8487.98
7007.21
5288.3
3483.96
1993.07
1231.96
791.048
6736.44
7164.95
6896.84
6034.09
4844.73
3573.25
2383.95
1494.96
994.427
638.15
940.842
1172.01
2463.39
900.908
1805.22
442.897
511.285
836.868
470.981
233.231
1369.19
1986.11
2447.69
1875.27
1862.08
1185.99
941.281
771.778
523.543
313.447
2543.84
3832.73
4417.37
3932.48
3320.07
2351.97
1488.95
885.097
584.036
365.055
4282.82
6164.51
6815.11
6168.5
5101.64
3660.81
2222.22
1161.58
736.771
469.57
6253.83
8531.2
9041.83
8196.19
6759.45
4851.11
2913.95
1481.38
920.608
575.569
8121.54
10580
10766.8
9767.01
8145.65
5940.96
3639.39
1821.81
1065.19
639.918
9584.62
11992.6
11845.8
10708.5
8964.79
6603.31
4069.02
2030.68
1136.64
675.419
10528.6
12765
12341.9
11082.9
9304.43
6974.38
4441.39
2407.09
1460.97
940.778
10982
12998.1
12344.6
10993
9232.45
7011.38
4632.37
2749.58
1798.07
1172.54
11048.7
12854.9
12022.9
10608.4
8885.37
6829.68
4714.7
3037.7
2100.18
1365.93
10855.9
12496.1
11567
10164.9
8555.16
6693.98
4786.43
3231.39
2287.4
1466.68
10548
12102
11191.6
9902.32
8475.59
6766.85
4891.78
3295.8
2300.86
1436.18
10259
11835.4
11056.5
9930.9
8651.49
7000.56
5061.38
3331.75
2276.13
1384.37
10090.9
11768.5
11187.3
10199.3
8938.93
7150.63
5015.06
3086.45
1972.77
1110.6
10107.2
11925
11589.5
10629.9
9230.03
7178.98
4814.53
2722.39
1600.01
852.075
10257.6
12145
12077.8
10981.4
9255.24
6889.99
4355.49
2314.55
1310.52
698.803
10455.8
12310.4
12383.5
11064.3
9046.6
6500.99
3954.29
2038.52
1154.21
630.679
10520.2
12162.9
12179.5
10642
8426.3
5837.55
3419.17
1743.27
982.326
530.645
9897.32
10883.9
10514.6
8944.28
6929.23
4740.73
2820.84
1483.88
850.341
467.329
8488.06
8663.93
7935.39
6549.5
4950.17
3374.59
2070.74
1189.34
710.735
394.877
884.988
1047.23
1643.25
2240.23
1876.57
468.281
700.56
443.584
253.714
168.984
1446.05
1972.58
2319.54
2110.08
1642.83
863.24
706.976
483.926
307.93
200.837
2500.56
3365.23
3592.28
2997.13
2255.49
1410.21
891.548
546.493
352.477
226.385
4120.81
5392.2
5583.76
4614.88
3448.55
2193.7
1242.01
676.904
425.867
266.617
6071.68
7629.27
7670.66
6344.46
4716.68
2990.88
1635.66
847.045
518.762
311.39
8126.53
9929.34
9696.3
8160.56
6181.17
3965.36
2136.74
1042.97
605.718
349.216
9916.54
11755.2
11228
9489.01
7284.92
4728.71
2533.51
1195.3
665.372
375.417
11255.7
13018
12276.2
10426.2
8119.14
5489.87
3003.6
1427.81
813.151
464.875
12092.1
13719.9
12805.9
10899.2
8563.3
5898.07
3371.28
1680.84
994.895
562.511
12480.7
13970.4
12941.5
11033.4
8721.93
6110.59
3677.32
1929.55
1175
651.679
12529
13908
12828.4
10954.9
8723.91
6217.66
3869.89
2116.17
1307.77
708.601
12375.1
13693.8
12636
10823.7
8702.73
6286.53
3927.64
2197.17
1354.79
714.83
12162.8
13485.1
12518.4