/*--------------------------------*- C++ -*----------------------------------*\
  =========                 |
  \\      /  F ield         | OpenFOAM: The Open Source CFD Toolbox
   \\    /   O peration     | Website:  https://openfoam.org
    \\  /    A nd           | Version:  7
     \\/     M anipulation  |
\*---------------------------------------------------------------------------*/
FoamFile
{
    version     2.0;
    format      ascii;
    class       volScalarField;
    location    "1";
    object      ILambda_13_0;
}
// * * * * * * * * * * * * * * * * * * * * * * * * * * * * * * * * * * * * * //

dimensions      [1 0 -3 0 0 0 0];

internalField   nonuniform List<scalar> 
4000
(
1057.58
595.119
263.831
210.703
177.727
158.451
148.593
144.373
142.916
142.48
1673.54
946.947
264.424
210.452
178.015
158.707
148.605
144.216
142.755
142.411
2130.27
1143.62
265.104
209.656
177.952
158.864
148.681
144.175
142.675
142.366
2313.39
1206.02
266.291
208.687
177.652
158.873
148.748
144.213
142.683
142.365
2222.74
1193.07
266.894
207.774
177.25
158.727
148.729
144.222
142.686
142.364
1977.12
1132.36
265.565
206.923
176.807
158.511
148.666
144.213
142.686
142.364
1755.54
1027.77
260.503
205.768
176.23
158.256
148.584
144.197
142.685
142.364
1540.1
868.056
253.314
203.801
175.31
157.906
148.479
144.177
142.685
142.364
1399.21
766.856
244.933
200.325
173.755
157.34
148.32
144.151
142.686
142.366
1422.52
771.029
235.046
194.914
171.312
156.429
148.063
144.112
142.691
142.369
1508.19
812.904
222.577
187.632
167.931
155.119
147.684
144.056
142.7
142.374
1606.89
880.116
208.456
179.121
163.834
153.467
147.197
143.99
142.719
142.383
1681.09
959.692
194.362
170.282
159.417
151.624
146.648
143.93
142.754
142.398
1646.08
975.621
180.698
162.001
155.102
149.764
146.091
143.889
142.81
142.421
1578.33
925.023
168.104
155.068
151.257
148.031
145.552
143.862
142.887
142.455
1500.1
867.798
157.685
149.819
148.109
146.49
145.012
143.813
142.965
142.496
1277.09
771.553
150.884
146.271
145.73
145.137
144.418
143.671
143
142.533
933.245
629.363
146.455
144.1
144.061
143.964
143.733
143.369
142.931
142.542
526.49
418.317
144.053
142.943
143.005
143.049
143.035
142.928
142.73
142.497
182.499
168.775
142.712
142.457
142.483
142.509
142.525
142.517
142.473
142.402
905.688
567.929
339.714
258.99
205.356
172.414
154.669
146.656
143.727
142.753
1303.48
776.449
338.848
258.599
206.104
173.132
154.84
146.359
143.336
142.557
2072.55
1273.1
339.421
256.94
205.998
173.55
155.087
146.278
143.103
142.395
2868.3
1734.43
343.531
254.908
205.351
173.634
155.292
146.392
143.127
142.393
3187.3
1804.02
348.635
253.147
204.516
173.384
155.285
146.429
143.138
142.391
2949.78
1738.73
351.278
251.924
203.801
173.002
155.167
146.418
143.14
142.39
2560.39
1575.58
343.641
250.755
203.149
172.612
155.015
146.383
143.137
142.39
2178.5
1179.15
330.511
248.676
202.169
172.167
154.85
146.341
143.133
142.39
1884.58
845.024
316.551
244.498
200.248
171.414
154.613
146.291
143.132
142.393
1854.8
819.05
302.042
236.987
196.701
170.028
154.187
146.209
143.133
142.397
1988.56
908.934
283.925
225.481
191.161
167.773
153.471
146.071
143.137
142.406
2169.42
1083.99
262.672
210.932
183.889
164.668
152.45
145.877
143.151
142.421
2267.76
1348.36
240.604
195.191
175.598
160.978
151.21
145.659
143.19
142.448
2194.62
1433.67
217.606
179.911
167.157
157.088
149.89
145.464
143.271
142.492
2104.35
1316.36
193.646
166.629
159.44
153.401
148.617
145.318
143.408
142.564
1861.79
1208.33
171.168
156.441
153.156
150.186
147.44
145.197
143.59
142.668
1256.79
991.528
156.768
149.595
148.557
147.521
146.299
144.988
143.744
142.79
577.04
509.494
147.519
145.51
145.46
145.362
145.077
144.515
143.721
142.877
196.793
182.539
143.681
143.415
143.563
143.711
143.789
143.694
143.36
142.823
147.06
144.478
142.528
142.551
142.612
142.686
142.754
142.784
142.727
142.556
922.058
647.712
458.749
337.629
252.327
197.266
166.044
151.226
145.582
143.565
1040.37
687.727
454.198
337.084
254.129
199.116
166.767
150.795
144.721
143.05
1339.38
820.082
448.656
333.556
253.907
200.127
167.506
150.695
144.082
142.467
2013.8
1199.32
448.462
329.049
252.404
200.339
168.092
151.029
144.156
142.463
3146.48
1884.55
460.223
325.34
250.516
199.862
168.155
151.161
144.195
142.458
3508.92
2241.63
482.809
323.286
249.047
199.124
167.924
151.156
144.208
142.454
3307.94
2231.05
479.473
322.338
248.234
198.476
167.618
151.082
144.202
142.452
2864.05
1806.66
457.823
320.894
247.574
197.987
167.356
150.994
144.188
142.451
2361.82
1118.63
432.247
316.712
245.923
197.225
167.07
150.911
144.179
142.454
2244.57
960.396
410.582
307.413
241.562
195.431
166.486
150.774
144.172
142.461
2387.81
1104.98
386.431
290.801
233.3
191.947
165.296
150.497
144.158
142.475
2567.16
1436.24
357.418
267.782
221.198
186.56
163.345
150.034
144.143
142.499
2583.28
1854.34
325.197
241.283
206.358
179.575
160.728
149.425
144.148
142.541
2276.63
1736.84
285.553
213.916
190.467
171.733
157.741
148.777
144.216
142.618
1876.42
1371.92
237.103
188.961
175.384
163.986
154.734
148.2
144.399
142.755
1193
863.009
184.955
169.161
162.853
157.162
151.999
147.752
144.727
142.985
311.616
301.173
159.593
155.736
153.734
151.73
149.608
147.335
145.136
143.326
156.354
156.101
148.42
147.999
147.871
147.704
147.379
146.627
145.354
143.703
145.675
144.49
144.039
144.218
144.489
144.817
145.137
145.246
144.87
143.821
145.812
142.61
142.629
142.711
142.831
142.996
143.201
143.387
143.421
143.11
1186.77
878.033
641.693
462.807
330.282
240.348
186.62
159.876
149.498
145.913
1204.45
871.598
632.436
462.424
334.421
244.797
188.916
159.616
147.861
144.741
1291.79
887.31
616.598
455.264
333.939
247.107
190.922
159.762
146.294
142.643
1544.21
982.041
602.7
445.335
330.414
247.459
192.452
160.708
146.522
142.632
2127.46
1284.34
599.998
436.666
325.92
246.283
192.768
161.135
146.653
142.62
3238.04
2005.84
617.002
431.872
322.428
244.634
192.31
161.183
146.709
142.61
3755.46
2508.48
654.287
431.232
320.862
243.279
191.603
161.021
146.705
142.602
3600
2460.02
650.676
431.968
320.908
242.702
191.103
160.817
146.667
142.597
2992.72
1653.53
613.851
429.826
320.565
242.433
190.858
160.684
146.637
142.599
2668.82
1274.4
579.035
420.384
316.782
240.951
190.33
160.524
146.616
142.609
2771.23
1441.71
549.434
399.139
306.093
236.383
188.719
160.086
146.567
142.629
2888.49
1857.16
513.268
365.837
287.741
227.821
185.412
159.154
146.472
142.665
2620.07
2095.32
456.92
323.631
263.296
215.552
180.354
157.717
146.353
142.729
1892.86
1509.92
366.952
276.549
234.964
200.652
174.037
155.963
146.276
142.846
1059.45
819.981
266.001
231.155
206.54
184.988
167.229
154.155
146.357
143.07
273.709
263.222
206.969
193.791
181.878
170.687
160.794
152.567
146.735
143.502
179.546
176.716
171.499
167.713
163.631
159.43
155.369
151.315
147.479
144.286
153.713
153.53
153.082
152.683
152.165
151.592
150.997
150.072
148.298
145.507
144.959
145.141
145.355
145.634
146.005
146.532
147.242
147.958
148.084
146.766
142.705
142.765
142.852
142.981
143.178
143.487
143.954
144.571
145.136
145.103
1623.57
1234.52
915.507
657.083
456.375
313.077
222.633
175.174
156.588
151.374
1594.02
1205.93
901.219
658.232
465.571
323.15
228.845
176.201
154.119
149.251
1590.42
1173.23
870.437
644.724
464.685
328.196
233.906
177.732
151.18
143.07
1677.69
1173.04
836.966
624.042
456.729
328.537
237.379
180.328
151.868
143.046
1954.68
1265.44
814.571
604.571
446.205
325.474
238.302
181.642
152.284
143.014
2580.45
1571.33
813.876
592.535
437.527
321.26
237.34
181.927
152.501
142.986
3706.35
2328.72
842.277
590.115
433.393
317.907
235.573
181.565
152.535
142.964
4140.89
2851.09
889.713
594.978
434.349
316.733
234.234
181.023
152.436
142.943
3779.03
2459.83
872.822
599.114
437.466
317.838
234.064
180.758
152.343
142.936
3209.29
1729.43
828.54
594.12
437.208
318.525
234.271
180.709
152.307
142.95
3205.26
1887.87
794.232
571.648
426.627
314.364
232.952
180.294
152.213
142.98
3173.83
2374.56
743.725
528.155
402.437
302.607
228.279
178.762
151.961
143.035
2412.21
1978.26
633.497
465.388
365.295
282.99
219.567
175.818
151.538
143.129
1378.73
1055.6
475.525
389.107
317.939
256.661
207.356
171.741
151.008
143.29
480.841
421.209
356.126
310.86
266.843
226.705
192.939
166.984
150.545
143.591
297.716
282.106
262.809
242.003
219.769
197.931
178.407
162.194
150.433
144.228
208.315
203.841
198.356
191.569
183.404
174.503
165.886
158.068
151.05
145.628
163.811
163.379
162.827
161.873
160.374
158.497
156.615
154.894
152.525
148.556
147.316
147.607
147.943
148.279
148.64
149.159
150.093
151.646
153.415
153.672
143.048
143.142
143.278
143.464
143.737
144.19
144.998
146.397
148.472
150.422
2238.02
1741
1313.18
949.872
654.535
432.595
284.076
200.897
167.011
161.518
2176.1
1696.42
1296.09
956.836
674.482
454.203
299.027
205.989
164.146
157.309
2107.05
1622.2
1243.4
933.608
673.464
464.816
310.906
212.102
161.506
144.049
2096.96
1560.09
1178.1
893.082
656.585
464.59
318.097
218.55
163.541
143.996
2227.74
1562.07
1125.05
851.753
633.061
456.809
319.936
222.204
164.825
143.921
2603.25
1698.31
1102.99
823.148
612.246
446.177
317.621
223.248
165.59
143.852
3372.15
2099.3
1121.32
813.862
600.653
437.132
312.866
222.397
165.835
143.8
4413.25
2954.31
1182.71
822.717
601.112
433.31
308.92
220.758
165.593
143.732
4475.77
3088.87
1211.38
839.103
610.632
436.41
308.462
219.817
165.284
143.691
3894.41
2350.01
1178.83
847.211
619.685
442.451
310.914
220.09
165.232
143.702
3693.51
2399.65
1146.06
832.101
615.753
443.087
312.223
220.519
165.144
143.749
3351.38
2673.05
1074.72
783.599
590.118
431.303
307.651
218.891
164.666
143.838
2226.86
1814.34
907.538
699.135
539.872
404.053
294.688
213.825
163.655
143.99
1067.75
873.363
708.249
585.212
467.216
361.671
273.395
205.58
162.083
144.214
652.551
596.264
529.68
456.712
380.8
308.585
245.625
194.83
160.144
144.552
422.872
398.79
369.385
334.401
294.678
253.56
215.188
182.648
158.132
145.205
267.481
259.664
250.585
238.87
223.744
205.907
187.491
170.781
156.658
146.814
184.086
182.954
181.998
180.299
177.124
172.376
166.772
161.453
156.785
151.382
151.992
152.453
153.039
153.526
153.769
153.777
153.951
155.157
158.528
164.631
143.755
143.9
144.128
144.413
144.759
145.249
146.184
148.282
152.892
161.85
3055.36
2430.22
1870.4
1375.53
955.278
623.122
387.023
244.016
178.471
167.335
2976.02
2380.58
1860.65
1399.64
997.831
667.439
419.74
258.945
175.995
146.384
2843.76
2260.19
1779.97
1364.79
998.911
689.133
445.348
276.424
182.18
146.055
2741.7
2126.01
1663.8
1290.91
965.801
687.086
459.198
290.65
187.655
145.937
2769.48
2047.6
1556.27
1208.27
916.196
668.345
461.759
299.352
191.304
145.809
3020.86
2094.13
1494.44
1144.88
869.006
642.739
455.525
302.215
193.71
145.686
3591.93
2342.36
1495.45
1116.9
839.053
619.467
443.279
300.127
194.738
145.609
4581.92
2928.88
1559.55
1126.88
834.383
607.498
431.837
295.213
194.173
145.451
5171.53
3619.31
1655.66
1161.09
852.584
611.936
428.465
291.793
193.05
145.315
4723.03
3159.6
1647.51
1194.66
879.81
628.466
434.925
292.535
192.771
145.3
4330.3
3064.9
1634.28
1202.56
894.768
642.711
444.397
296.115
192.947
145.366
3661.8
2941.23
1559.27
1163.45
879.345
639.655
445.86
296.665
192.461
145.508
2303.38
1803.03
1331.51
1065.33
822.962
609.694
431.407
289.631
190.569
145.767
1422.79
1268.66
1094.45
909.947
722.732
549.315
398.893
275.171
187.009
146.141
1000.88
923.444
826.347
712.624
587.513
463.495
350.548
254.015
182.107
146.564
643.174
607.203
561.821
505.878
438.656
365.101
292.454
227.657
175.821
146.969
378.362
364.379
349.422
330.745
305.068
272.269
235.261
199.309
168.272
147.354
224.046
220.77
219.068
216.89
211.872
202.635
189.569
174.739
160.66
148.319
161.163
161.823
162.987
164.074
164.536
163.732
161.497
158.371
155.475
151.907
145.229
145.428
145.852
146.389
146.946
147.391
147.795
148.832
152.639
164.311
4090.63
3325.82
2616.22
1966.27
1391.42
914.706
555.826
321.243
197.678
151.685
4029.65
3301.6
2641.46
2033.81
1480.9
1002.79
622.563
357.643
208.957
150.573
3842.4
3138.72
2535.81
1993.08
1492.82
1047.04
673.644
393.976
222.451
149.815
3630.85
2910.57
2347.12
1869.87
1434.15
1041.46
698.914
423.012
234.967
149.557
3545.95
2724.03
2147.08
1714.38
1335.51
998.849
699.914
440.618
243.66
149.42
3713.64
2685.65
2011.29
1583.94
1235.89
940.454
682.674
446.45
250.26
149.382
4211.02
2867.8
1975.54
1513.93
1165.32
885.372
652.32
440.905
253.825
149.423
5093.16
3350.98
2043.12
1515.4
1144.34
852.506
621.501
427.551
252.925
149.167
5969.35
4189.01
2183.09
1570.71
1171.12
854.822
607.957
415.085
248.662
148.797
5708.03
4070.04
2230.55
1643.09
1226.38
887.867
619.668
413.439
247.378
148.704
5210.03
3892.27
2259.57
1696.24
1278.24
929.414
647.046
425.454
248.484
148.779
4322.05
3470.92
2202.53
1692.88
1295.01
952.167
667.908
436.886
248.846
148.946
2862.17
2368.23
1965.44
1603.85
1252.18
934.397
662.485
431.994
246.555
149.34
2103.54
1912.9
1681.27
1417.55
1134.32
863.899
622.804
410.109
239.341
150.035
1540.31
1442.08
1307.42
1139.28
943.466
740.604
549.017
373.966
229.34
150.953
1011.85
963.171
896.092
810.854
703.145
578.883
448.88
324.554
215.99
151.651
582.62
557.581
532.279
503.632
463.49
408.022
339.508
267.063
198.971
151.725
303.732
293.629
289.224
287.21
281.676
267.711
243.942
212.727
179.353
150.982
179.191
179.705
181.875
184.537
186.699
186.427
182.234
173.497
161.764
149.096
148.364
148.499
149.269
150.417
151.803
152.832
152.822
151.173
148.237
145.485
5322.49
4421.32
3555.24
2736.57
1985.74
1334.48
817.648
456.891
250.07
164.194
5355.93
4488.73
3674.17
2901.12
2169.72
1505.65
946.713
528.517
270.852
159.199
5157.42
4317.3
3571.2
2881.36
2218.43
1598.49
1048.71
602.796
297.679
157.202
4811.44
3976.06
3295.87
2699.52
2126.91
1587.63
1092.4
656.754
323.199
156.507
4571.71
3628.58
2949.56
2425.05
1943.4
1496.82
1082.41
686.37
341.627
156.672
4644.91
3466.33
2683.35
2175.76
1748.65
1374.17
1036.57
692.734
354.939
156.604
5117.79
3594.1
2574.86
2021.06
1598.89
1256.55
967.216
677.45
364.052
157.239
6017.6
4070.45
2631.2
1993.64
1538.49
1179.91
894.981
642.165
363.206
156.973
6947.12
4918.9
2808.24
2067.81
1567.92
1170.25
855.15
604.16
353.324
156.47
6793.71
5048.27
2921.62
2187.65
1658.19
1223.72
872.082
593.298
348.545
156.095
6290.47
4860.17
3018.02
2309.91
1766.77
1308.16
929.365
621.663
352.005
156.17
5359.11
4297.24
3016.33
2379.09
1846.77
1381.96
990.323
660.767
354.739
156.264
3892.63
3303.47
2813.97
2339.48
1854.64
1406.59
1019.08
673.015
350.91
156.147
3031.55
2803.51
2512.03
2157.99
1752.82
1351.97
989.259
649.664
338.588
157.353
2315.09
2209.12
2038.84
1809.65
1518.32
1201.65
895.48
597.259
321.601
159.657
1592.73
1541.64
1449.32
1327.08
1162.08
961.311
743.417
517.164
298.782
161.972
946.302
905.658
860.69
817.906
757.372
668.457
551.205
412.329
265.674
162.491
465.177
435.075
419.701
417.653
414.937
397.801
360.945
302.524
226.384
161.948
214.84
213.482
216.707
222.111
228.727
232.39
229.581
215.73
189.718
158.946
155.203
154.658
155.866
158.067
161.614
165.339
167.633
165.817
158.611
151.482
6660.97
5652.48
4641.84
3657.43
2728.05
1888.69
1190.07
671.527
346.036
197.78
6916.71
5926.16
4957.03
4012.39
3091.76
2214.16
1433.29
808.587
375.039
178.687
6828.5
5843.72
4931.86
4082.05
3241.19
2415.06
1636.2
954.656
424.576
173.052
6325.7
5381.9
4574.89
3854.58
3122.43
2400.9
1704.97
1039.99
470.252
170.284
5876.4
4810.29
4020.57
3403.86
2801.55
2219.42
1660.29
1077.84
503.093
170.491
5823.47
4464.58
3551.65
2964.67
2448.44
1981.66
1555.12
1076.14
525.342
171.198
6262.58
4514.43
3315.02
2655.77
2160.35
1752.36
1408.43
1029.07
533.941
173.296
7194.28
5000.46
3335.46
2565.65
2020.92
1596.93
1256.82
946.194
532.585
173.296
8109
5922.29
3544.03
2642.86
2041.5
1560.8
1174.21
863.289
537.59
173.088
8004.43
6164.84
3716.97
2811.62
2164.62
1631.99
1193.44
836.373
520.17
171.727
7547.57
6010.27
3893.78
3017.88
2343
1768.99
1288.46
887.941
529.34
171.886
6662.6
5431.47
3980.4
3193.04
2517.4
1918.76
1409.34
971.993
540.211
172.285
5204.53
4454.81
3852.45
3259.9
2623.71
2025.91
1503.54
1021.49
506.684
169.286
4195.91
3933.27
3588.78
3147.38
2604.1
2039.76
1526.61
1017.47
490.696
170.566
3330.51
3247.39
3064.11
2783.31
2373.65
1905.01
1443.61
966.791
477.282
176.661
2419.39
2406.91
2299.18
2140.59
1902.95
1594.68
1245.87
856.825
445.678
182.704
1542.15
1495.99
1419.08
1358.5
1274.79
1139.5
944.453
689.698
389.376
185.681
784.817
710.289
659.891
651.446
660.072
646.024
591.784
489.456
317.171
187.307
285.621
276.971
280.152
287.957
303.315
316.264
322.056
307.441
245.773
184.476
170.901
167.353
168.759
171.716
179.29
189.481
200.278
203.753
184.796
171.694
7916.52
6870.56
5754.48
4625.91
3540.5
2530.13
1659.14
980.149
521.387
294.332
8539.48
7499.58
6414.27
5303.37
4213.38
3121.28
2098.91
1230.5
554.734
227.063
8745.87
7676.92
6623.92
5584.8
4590.76
3552.49
2493.42
1491.83
624.674
210.211
8094.88
7103.49
6200.53
5348.72
4461.33
3521.54
2580.39
1601.93
689.078
199.136
7468.68
6259.47
5377.17
4681.12
3946.82
3195.36
2455.56
1622.11
718.575
195.676
7296.82
5718.76
4645.67
3987.66
3368.23
2782.98
2246.14
1596.7
758.327
200.142
7674.06
5658.83
4226.59
3450.8
2871.96
2388.14
1985.23
1520.58
822.917
210.961
8589.7
6135.85
4178.91
3239.89
2603.6
2112.71
1718.78
1349.99
809.98
211.525
9346.29
7127.42
4406.98
3298.6
2590.88
2028.92
1569.35
1177.42
750.689
200.223
9294.19
7506.82
4632.95
3503.74
2732.77
2105.52
1582.94
1133.9
712.05
199.444
8902.83
7378.02
4877.47
3790.02
2977.89
2289.66
1711.01
1208.39
732.146
199.553
8106.48
6744.44
5043.77
4084.22
3262.8
2525.6
1900.14
1348.71
777.094
200.192
6771.54
5767.53
5008.83
4299.65
3511.33
2749.44
2089.09
1477.43
777.276
200.026
5570.69
5229.99
4836.36
4340.86
3652.38
2896.35
2208.95
1515.74
735.722
197.182
4531.63
4488.45
4334.31
4043.02
3508.5
2848.98
2189.18
1472.15
680.732
208.825
3418.17
3505.74
3455.12
3278.55
2965.14
2515.39
1989.27
1359.13
653.581
222.753
2307.04
2358.13
2288.58
2185.91
2091.86
1892.03
1585.37
1142.61
593.54
234.958
1289.83
1189.15
1103.27
1043.6
1088.39
1093.01
1005.56
824.578
480.244
244.981
418.213
394.177
397.908
398.56
430.107
456.839
483.042
486.012
361.364
249.529
208.548
194.407
195.829
195.687
208.736
230.22
264.129
302.038
249.504
242.853
8816.09
7844.38
6688.33
5456.42
4246.63
3114.91
2132.71
1345.89
802.328
584.056
9821.5
8931.87
7828.62
6605.4
5344.51
4066.74
2859.37
1763.93
849.793
355.284
10352.3
9484.06
8419.7
7289.71
6128.96
4871.44
3554.73
2188.86
925.597
307.956
9999.75
8963.94
8003.28
7092.98
6054.7
4866.28
3647.32
2312.49
994.908
265.095
9361.59
7963.15
6920.49
6191.16
5340.84
4376.82
3425.4
2323.06
1058.42
255.958
9116.35
7300.32
5963.15
5225.73
4499.33
3749.36
3088.64
2268.48
1127.76
261.826
9369.46
7121.29
5363.9
4430.99
3746.7
3156.96
2688.04
2116.8
1156.91
287.567
10035.9
7521.83
5204.04
4048.71
3300.86
2735.26
2293.27
1851.94
1131.37
292.886
10483.7
8418.48
5402.66
4042.29
3214.83
2581.09
2067.97
1598.35
1036.19
265.804
10438.1
8780.19
5642.13
4257.75
3352.64
2641.15
2060.2
1532.77
978.044
266.288
10142.4
8712.78
5924.29
4598.72
3642.31
2847.55
2195.05
1608.54
997.682
265.936
9511.29
8174.88
6147.68
4992.36
4023.1
3149.79
2425.47
1775.92
1054.98
265.018
8423.6
7243.09
6194.76
5365.18
4429.83
3491.23
2698.87
1961.09
1047.41
255.03
7145.85
6642.68
6121.79
5595.76
4781.88
3810.48
2950.48
2079.41
1013.62
241.083
5871.63
5826.9
5666.05
5428.78
4802.58
3918.86
3054.68
2118.32
1034.31
279.328
4496.5
4689.16
4735.01
4632.83
4257.94
3628.38
2890.12
1998.8
979.031
312.808
3079.77
3325.58
3377.47
3300.85
3163.67
2861.59
2407.97
1725.98
879.136
336.517
1636.28
1758.66
1733.73
1667.48
1700.03
1699.84
1590.86
1294.72
739.685
374.292
588.686
586.071
602.29
583.755
604.795
636.858
697.55
746.938
560.344
398.05
302.163
252.272
258.323
240.321
255.079
284.812
353.848
560.125
377.927
497.694
9177.61
8354.11
7221.25
5923.23
4638.35
3444.17
2426.48
1632.59
1052.43
627.461
10503
9905.32
8910.28
7604.22
6207.05
4785.75
3451.68
2257.11
1291.5
696.173
11264.6
10820.9
9940.76
8812.9
7523.57
6067.17
4507.13
2855.4
1366.81
578.14
11468.2
10662.2
9645.17
8724.14
7616.19
6185.88
4661.11
3039.77
1411.14
432.491
11344
9962.76
8578.07
7711.92
6820.5
5608.36
4394.5
3051.49
1454.37
389.576
11168.3
9299.21
7525.06
6578.77
5765.57
4803.7
3971.34
3003.93
1563.29
374.143
11171.6
9001.85
6802.73
5605.96
4778.91
4036.44
3490.06
2865.83
1701.85
472.647
11334.1
9193.68
6528.47
5043.01
4132.12
3460.82
2992.52
2529.47
1655.37
518.907
11452.5
9701.76
6653.8
4916.15
3918.86
3199.65
2669.87
2173.98
1473.85
416.5
11352.3
9917.69
6844.35
5088.1
4009.34
3212.86
2619.33
2078.48
1411.71
425.466
11120.5
9906.48
7118.3
5446.8
4315.74
3412.26
2728.46
2127.79
1415.84
425.28
10651.4
9570.85
7349.61
5901.48
4766.94
3748.76
2959.51
2285.45
1461.35
426.879
9824.96
8867.91
7396.53
6373.2
5297.86
4172.75
3266.54
2477.46
1432.89
411.399
8708.97
8189.97
7346.97
6724.99
5828.02
4634.97
3596.93
2621.18
1365.16
320.941
7261.14
7255.9
6903.34
6645.52
6020.48
4910.56
3824.24
2732.7
1410.58
407.732
5503.87
5904.8
5930.67
5879.14
5538.85
4706.79
3720.34
2630.15
1379.4
507.102
3540.51
4142.15
4404.75
4438.28
4291.73
3846.18
3171.23
2293.7
1266.59
551.403
1787.94
2235.59
2454.17
2429.17
2423.56
2362.64
2146.45
1728.92
1112.03
661.578
788.751
847.442
931.099
853.098
848.865
849.138
844.918
907.586
829.068
628.093
554.93
369.556
417.708
331.93
342.756
352.844
306.72
386.001
473.104
565.804
8954.18
8286.78
7202.52
5878.79
4569.55
3366.74
2380.94
1726.81
1363.49
1226.92
10583.6
10278.1
9422.85
8056.44
6583.39
5027.38
3604.59
2492.96
1764.56
1600.39
11552.3
11580.6
10973.3
9835.72
8458.49
6736.36
4941.61
3168
1835.88
1343.91
11849.4
11783.2
10907.3
9917.11
8730.43
7074.56
5289.98
3491
1918.49
867.579
11980
11553.7
10231.4
9130.19
8059.74
6604.45
5100.37
3587.7
1946.47
736.018
12099.8
11205.9
9353.86
8043.61
7009.11
5794.56
4709.37
3613.68
2031
562.77
12165.1
10929.7
8611.03
6991.44
5913.56
4937.66
4251.68
3610.18
2364.93
847.962
12130
10847.9
8241.62
6282.57
5105.27
4234.01
3723.67
3339.28
2499.45
1149.82
12050.3
10950.4
8236.76
5999.23
4721.74
3836.17
3296.05
2869.62
2121.53
763.033
11868.2
10980.7
8302.56
6061.5
4709.15
3764.18
3180.36
2738.07
2085.12
791.554
11597.5
10946.2
8512.77
6388.99
5003.42
3934.56
3233.38
2725.2
2046.87
789.023
11136.4
10724.3
8706.38
6846.98
5494.07
4281.74
3424.15
2820.82
2036.78
816.961
10363.4
10216.6
8678.58
7311.15
6065.06
4731.56
3698.43
2940.94
1976.92
874.159
9204.93
9502.66
8551.72
7664.13
6636.01
5245.47
4007.58
2964.79
1652.61
431.285
7541.28
8345.67
8039.15
7602.49
6884.69
5601.36
4291.56
3126.88
1811.28
643.577
5597.15
6707.38
6932.5
6841.2
6439.16
5428.13
4201.98
3006.03
1858.5
952.145
3680.79
4737.22
5247.1
5352.9
5202.29
4547.03
3606.51
2554.98
1631.13
977.741
2035.04
2710.18
3214.89
3250.03
3235.21
2969.44
2493.87
1964.93
1481.87
1415.62
913.189
1145.99
1355.53
1226.28
1243.15
1214.43
1035.07
1173.95
1240.7
1369.37
422.889
555.867
849.933
534.748
557.618
657.994
377.594
528.775
708.112
716.83
8151.31
7632.74
6590.74
5270.77
3979.4
2862.98
1894.39
1333.21
1070.69
1002.71
10051.1
10004.1
9214.73
7783.45
6183.26
4718.7
3103.57
2069.91
1476.67
1324.3
11324.7
11771
11340.3
10032.9
8376.46
6463.03
4486.6
2750.87
1693.9
1023.86
11824.8
12325
11665.5
10463.3
8980.53
7059.26
5069.97
3291.17
2282.3
2025.32
11999.1
12454.8
11479.1
10171.7
8782.44
7015.38
5184.44
3496.16
2250.02
1743.19
11968.1
12307.4
10958.5
9412.68
8051.11
6488.81
5017.26
3684.85
2205.25
775.619
11877.1
12088.9
10356.9
8485.55
7059.07
5713.87
4705.32
3976.04
2855.73
1450.84
11779.6
11893.5
9942.05
7744.57
6198.47
4957.4
4248.35
3963.45
3494.18
2990.84
11673.6
11809.1
9759.32
7322.64
5652.72
4426.51
3769.84
3466.44
2907.96
1559.63
11444.7
11692.6
9691.57
7217.64
5487.82
4231.67
3573.14
3288.28
2885.65
1640.82
11057.6
11530.8
9760.64
7446.14
5732.98
4364.2
3558.97
3183.7
2762.99
1598.99
10461
11224.7
9814.79
7825.22
6216.09
4718.61
3693.81
3171.73
2652.65
1657.34
9635.88
10695.2
9694.54
8145.1
6711.08
5135.54
3886.12
3152.7
2549.36
2385.56
8597.75
9958.46
9428.57
8343.62
7143.28
5565.34
4070.56
2903.04
1683.48
541.58
7271.27
8800.59
8807.91
8174.23
7259.09
5806.22
4255.09
2946.37
1892.71
945.056
5701.51
7224.22
7632.13
7361.32
6717.06
5504.25
4057.96
2762.81
2096.18
2036.42
3986.54
5284.51
5931.08
5883.53
5484.24
4583.91
3376.56
2223.74
1635.71
1626.36
2364.71
3220.13
3868.59
3854.1
3640.59
3206.96
2346.96
1629.75
1109.73
694.982
1135.48
1400.76
1643.97
1604.11
1576.52
1725.38
1050.95
1147.45
1235.63
1223.48
555.107
615.414
820.427
947.002
890.142
1652.16
421.306
694.155
1329.49
872.98
6804.67
6454.62
5482.75
4228.55
3024.08
2033.67
1274.35
806.266
652.16
625.432
8792.01
9021.34
8229.82
6751.86
5091.45
3614.23
2288.12
1310.91
955.844
896.87
10292.9
11134.5
10717.5
9116.45
7197.25
5195.73
3313.17
1774.07
1209.17
1072.5
11095.2
12097
11538.7
9960.42
8070.18
5957.53
3914.56
2211.75
1531.38
1388.51
11533.4
12598.9
11801.1
10212
8421.47
6344.76
4279.48
2543.43
1670.83
1360.27
11664.7
12702.1
11677
10032.3
8346.35
6412.43
4505.18
2901.27
1829.72
823.9
11589.9
12597.9
11343.6
9558.95
7862.98
6095.1
4497.33
3283.41
2426.41
1460.95
11394.1
12363.9
11001
9042.23
7241.04
5539.18
4226.87
3556.9
3247.8
3254.02
11138.2
12178.5
10766.7
8635.16
6670.19
4949.36
3838.35
3450.48
3330.92
3418.32
10782.2
11926.3
10569.3
8415.21
6348.15
4617.11
3595.5
3305.8
3369.02
3742.81
10314
11604
10432.3
8448.92
6478.36
4699.54
3534.2
3115.91
3114.88
3523.66
9711.92
11161
10253.3
8569.68
6851.04
5049.66
3613.56
2906.19
2665.89
2898.19
8962.62
10561.3
9930.01
8568.18
7089.8
5356.15
3713.02
2627.48
2131.23
2268.34
8060.28
9852.29
9525.84
8421.17
7130.29
5458.75
3714.39
2261.88
1361.75
579.224
6923.71
8798.21
8866.35
8004.08
6852.41
5270.41
3556.08
2100.37
1353.19
748.887
5573.72
7406.62
7794.23
7133.12
6116.71
4718.46
3175.12
1827.86
1368.84
1423.24
4076.4
5638.8
6254.46
5791.71
4986.91
3887.61
2641.67
1464.38
1100.86
1178.26
2600.98
3666.06
4254.19
3912.49
3399.33
2729.91
1892.84
1070.01
794.451
826.097
1428.65
1775.35
1993.59
1629.59
1485.25
1362.61
955.029
735.65
656.593
709.125
947.176
865.884
1419.9
537.573
674.669
1034.05
335.814
394.316
469.415
538.919
5086.27
4906.36
4089.81
3004.6
2014.26
1236.46
694.029
378.377
293.014
273.015
6850.16
7268.2
6542.06
5109.35
3612.42
2331.8
1301.03
589.831
383.722
342.41
8329.56
9353.43
8837.22
7148.74
5289.88
3455.58
1891.78
797.522
487.254
410.529
9346.77
10623.1
9990.69
8226.83
6262.96
4223.7
2399.8
1081.59
678.41
563.421
10053.8
11485.9
10645.3
8886.27
6916.57
4788.76
2812.6
1343.54
872.023
711.394
10457.9
12001.6
10916.4
9189.46
7315.7
5193.22
3176.63
1666.68
1167.46
983.478
10549.4
12113.7
10973.4
9242.6
7359.45
5310.58
3312.97
1849.16
1357.18
1183.22
10455.4
12062.3
10902.4
9140.8
7248.78
5251.13
3335.69
2006.16
1567.26
1468.75
10187.9
11825.7
10680.7
8919.49
6998.96
5005.19
3193.8
2012.23
1636.09
1593.56
9795.6
11499.7
10419.5
8696.79
6763.87
4770.22
3045.41
1977.43
1661.56
1664.48
9268.35
11050.2
10087.6
8493.26
6679.89
4743.27
2999.46
1897.43
1580.95
1608.31
8615.76
10482.1
9671.14
8251.48
6638.54
4817.41
3013.48
1784.11
1423.72
1447.07
7843.08
9802.45
9164.76
7897.8
6434.95
4724.54
2938.43
1625.63
1241.88
1242.94
6942.55
8961.55
8528.93
7415.35
6076.45
4437.23
2718.37
1376.27
984.624
938.879
5932.37
7981.72
7808.42
6806.31
5584.36
4027.46
2434.24
1157.12
794.049
757.226
4797.59
6705.34
6904.32
6008.71
4840.12
3442.96
2024.31
873.355
547.676
521.891
3636.79
5273.35
5673.7
4935.13
3955.62
2794.43
1662.49
721.881
449.818
428.552
2481.13
3655.29
4073.06
3514.63
2796.99
1956.42
1233.95
577.403
366.063
316.685
1496.02
1989.84
2190.88
1788.67
1435.81
975.295
796.914
555.606
437.032
289.038
969.77
902.687
1150.8
761.812
754.768
324.659
406.542
520.577
709.742
255.002
3354.38
3319.87
2744.47
1922.8
1226.09
681.553
352.745
200.673
168.256
164.31
4629.43
5071.27
4555.01
3353.55
2236.31
1241.55
577.246
237.66
182.784
178.828
5818.57
6700.21
6254.38
4753.42
3210.3
1800.73
771.304
274.076
200.019
192.284
6861.8
8059.13
7542.86
5850.36
4059.29
2363.87
1067.71
349.952
231.354
220.203
7711.48
9174.6
8529.43
6762.49
4819.64
2882.23
1334.6
431.724
267.692
248.416
8328.03
10043
9266.9
7508.19
5543.59
3471.3
1709.14
573.215
327.435
297.246
8604.45
10458.1
9630.51
7893.96
5937.31
3815.76
1917.79
682.949
384.146
339.585
8646.92
10599.4
9797.25
8101.73
6165.65
4067.41
2109.82
818.896
460.389
398.498
8471.11
10473.9
9700.58
8050.84
6130.61
4040.92
2117.89
860.652
500.396
431.884
8131.41
10172.9
9451.7
7870.43
5991.9
3942.13
2088.61
875.484
523.434
453.277
7630.47
9687.03
9030.68
7538.44
5775.66
3822.42
2019.43
833.626
496.25
439.014
6989.89
9044.98
8474.88
7086.83
5483.11
3671.47
1919.76
751.032
433.516
396.923
6225.56
8263.52
7810.25
6532.37
5063.9
3396.8
1771.63
651.676
369.436
350.416
5355.77
7329.55
7024.95
5856.29
4498.23
2940.74
1497.58
498.788
291.738
290.536
4433.44
6279.72
6197.54
5144.46
3899.01
2504.43
1261.55
406.463
248.862
254.361
3510.71
5110.03
5251.69
4305.4
3171.08
1953.9
930.267
301.157
206.174
213.594
2710.39
4047.55
4331.38
3536.68
2586.79
1570.91
766.92
274.357
190.005
194.998
1986.45
3004.74
3352.91
2717.12
1996.92
1131.28
589.43
267.62
177.966
174.411
1410.79
2092.25
2567.64
1940.45
1620.71
732.188
549.243
365.157
189.532
167.748
1008.78
1388.31
2816.69
1436.22
2039.68
365.516
472.858
648.59
235.116
159.771
1955.01
2046.42
1704.45
1167.75
722.811
391.503
215.53
157.254
146.55
144.877
2675.07
3036.53
2699.5
1864.62
1144.46
572.663
258.52
165.516
149.5
147.375
3434.79
4032.45
3683.9
2565.31
1551.51
741.131
307.909
175.13
153.03
149.943
4279.12
5236.13
4937.54
3539.65
2193.13
1047.35
404.103
192.467
158.828
154.792
5040.45
6317.09
6020.84
4454.86
2833.23
1378.24
514.743
212.303
165.553
160.031
5708.48
7401.93
7115.76
5513.16
3710.16
1910.19
711.287
244.71
175.24
168.309
6067.3
7994.98
7753.72
6143.44
4293.8
2330.6
885.052
274.76
184.539
175.885
6225.49
8328.3
8196.37
6672.96
4814.19
2819.6
1127.08
315.164
195.495
185.531
6164.79
8336.09
8256.28
6823.31
4988.26
2949.84
1243.71
338.061
201.593
191.162
5950.89
8143.23
8103.74
6765.76
4988.21
2978.95
1307.72
352.722
204.301
194.394
5582.23
7738.76
7706.16
6403.35
4720.61
2821.53
1234.24
336.94
199.837
192.122
5077.43
7154.4
7122.93
5828.4