/*--------------------------------*- C++ -*----------------------------------*\
  =========                 |
  \\      /  F ield         | OpenFOAM: The Open Source CFD Toolbox
   \\    /   O peration     | Website:  https://openfoam.org
    \\  /    A nd           | Version:  7
     \\/     M anipulation  |
\*---------------------------------------------------------------------------*/
FoamFile
{
    version     2.0;
    format      ascii;
    class       volScalarField;
    location    "1";
    object      ILambda_15_0;
}
// * * * * * * * * * * * * * * * * * * * * * * * * * * * * * * * * * * * * * //

dimensions      [1 0 -3 0 0 0 0];

internalField   nonuniform List<scalar> 
4000
(
169.188
163.614
142.568
142.343
142.342
142.342
142.344
142.349
142.359
142.366
399.54
371.151
143.363
142.35
142.345
142.35
142.362
142.383
142.416
142.428
718.863
596.505
144.559
142.366
142.359
142.381
142.409
142.459
142.526
142.523
1035.91
796.147
146.411
142.411
142.401
142.456
142.506
142.596
142.691
142.638
1309.28
986.539
148.823
142.507
142.522
142.599
142.684
142.813
142.906
142.759
1516.24
1154.51
152.154
142.731
142.775
142.868
142.99
143.131
143.162
142.871
1715.8
1309.67
155.935
143.176
143.241
143.358
143.498
143.578
143.452
142.966
1905.2
1415.32
159.73
144.051
144.071
144.212
144.303
144.194
143.777
143.042
2048.97
1458.63
163.53
145.57
145.505
145.625
145.53
145.028
144.142
143.099
2169.28
1464.93
167.856
148.034
147.843
147.826
147.321
146.139
144.56
143.142
2265.2
1447.36
172.902
151.882
151.47
151.089
149.831
147.585
145.047
143.176
2349.03
1424.57
179.102
157.487
156.764
155.691
153.215
149.427
145.62
143.206
2471.86
1460.89
188.344
165.376
164.153
161.905
157.602
151.707
146.29
143.236
2631.31
1586.81
202.311
176.088
174.052
169.997
163.11
154.459
147.067
143.271
2864.11
1757.4
221.711
190.272
186.798
180.145
169.797
157.69
147.953
143.313
3233.29
1952.28
245.349
208.485
202.726
192.508
177.696
161.39
148.942
143.363
3624.78
2136.42
272.352
231.107
222.011
207.102
186.77
165.526
150.024
143.419
3861.99
2256.02
302.706
258.596
244.883
223.924
196.954
170.046
151.181
143.483
3808.03
2201.71
337.126
291.028
271.282
242.85
208.122
174.88
152.396
143.559
3453.06
1904.73
376.873
328.643
301.186
263.744
220.13
179.947
153.652
143.651
146.357
143.969
142.361
142.342
142.342
142.344
142.349
142.365
142.401
142.446
179.691
174.757
142.677
142.349
142.348
142.36
142.391
142.45
142.564
142.648
426.984
447.894
144.106
142.382
142.374
142.42
142.5
142.627
142.833
142.895
930.214
917.505
148.076
142.483
142.455
142.578
142.712
142.923
143.187
143.138
1473.91
1241.65
153.559
142.671
142.674
142.899
143.098
143.37
143.603
143.346
1822.71
1475.19
161.675
143.117
143.199
143.511
143.769
144.015
144.063
143.503
2040.58
1705.69
169.327
144.053
144.254
144.631
144.887
144.929
144.571
143.61
2258.09
1783.73
175.136
145.832
146.132
146.56
146.659
146.203
145.143
143.676
2432.82
1698.54
180.096
149.043
149.318
149.679
149.331
147.945
145.811
143.716
2548.39
1595.51
185.986
154.333
154.368
154.403
153.157
150.266
146.61
143.743
2643.21
1496.64
193.717
162.209
161.885
161.163
158.376
153.259
147.568
143.771
2764.09
1447.74
204.888
173.143
172.431
170.376
165.205
156.999
148.711
143.808
2952.28
1643.75
223.792
188.06
186.562
182.371
173.77
161.513
150.047
143.86
3234.75
2040.73
253.291
207.889
204.816
197.437
184.162
166.805
151.575
143.929
3706.7
2409.83
290.966
233.217
227.473
215.672
196.358
172.832
153.279
144.014
4268.81
2748.66
330.012
264.658
254.87
237.118
210.282
179.517
155.13
144.115
4513.05
2952.44
369.829
302.409
287.023
261.6
225.769
186.758
157.095
144.227
4269.99
2721.23
412.628
346.79
323.952
288.919
242.597
194.422
159.131
144.349
3777.24
2260.84
462.428
397.644
365.349
318.776
260.496
202.364
161.205
144.504
3320.06
1902.67
521.468
454.939
410.906
350.814
279.177
210.426
163.285
144.702
148.675
142.373
142.342
142.342
142.343
142.346
142.359
142.405
142.539
142.799
146.978
142.875
142.372
142.348
142.355
142.378
142.449
142.611
142.969
143.396
149.797
148.943
142.656
142.383
142.405
142.488
142.68
142.995
143.556
143.921
237.934
259.534
144.252
142.527
142.575
142.797
143.141
143.598
144.225
144.303
838.158
730.419
151.186
142.981
143.06
143.518
143.993
144.499
144.941
144.534
1380.58
1249.52
173.785
144.089
144.216
144.944
145.499
145.825
145.716
144.643
1750
1709.02
191.382
146.27
146.58
147.537
148.02
147.752
146.601
144.673
2080.7
1994.75
200.851
150.181
150.797
151.894
151.968
150.481
147.666
144.665
2340.26
1859.89
206.325
156.836
157.799
158.673
157.775
154.211
148.986
144.654
2529.01
1660.79
214.162
167.579
168.429
168.535
165.829
159.108
150.62
144.665
2680.09
1508.91
226.99
183.043
183.486
182.101
176.417
165.262
152.599
144.71
2866.83
1545.14
249.602
203.875
203.649
199.874
189.735
172.703
154.931
144.796
3193.94
2074.88
291.17
231.47
229.466
222.061
205.793
181.373
157.595
144.92
3654.01
2668.71
350.619
266.775
261.587
248.809
224.522
191.165
160.546
145.078
4206.78
3058.25
412.462
310.03
300.055
279.958
245.692
201.919
163.727
145.262
4495.72
3088.73
458.148
361.649
344.964
315.231
268.996
213.431
167.062
145.465
4067.23
2646.02
508.657
421.555
395.934
354.136
294.038
225.475
170.473
145.68
3602.32
2215.81
571.341
489.809
452.588
396.198
320.35
237.79
173.873
145.901
3215.27
1917.2
646.926
565.825
514.276
440.874
347.485
250.116
177.225
146.246
2910.74
1727.03
735.07
649.066
580.301
487.522
374.997
262.195
180.464
146.684
142.344
142.343
142.343
142.343
142.344
142.351
142.377
142.494
142.941
144.362
142.379
142.371
142.355
142.357
142.37
142.412
142.545
142.936
143.93
145.716
142.637
142.625
142.436
142.43
142.486
142.627
142.982
143.705
145.005
146.351
144.624
144.703
142.837
142.726
142.895
143.274
143.983
144.904
146.089
146.562
173.757
182.328
144.906
143.676
144.06
144.866
145.933
146.772
147.236
146.508
650.416
592.533
153.603
146.05
146.789
148.195
149.431
149.645
148.582
146.337
1192.31
1190.38
189.039
151.122
152.146
154.145
155.2
153.913
150.293
146.159
1702.88
1797.27
221.415
159.949
161.413
163.752
163.971
159.936
152.52
146.04
2090.68
1840.6
239.001
173.925
175.942
178.042
176.354
167.988
155.365
146.015
2353.07
1664.86
253.916
195.033
197.262
197.977
192.766
178.189
158.868
146.093
2578.26
1546.71
279.41
224.343
226.033
224.088
213.366
190.482
163.002
146.265
2915.99
1793.69
329.497
262.782
262.721
256.615
238.099
204.694
167.692
146.515
3433.28
2563.2
409.724
311.56
307.911
295.459
266.617
220.545
172.831
146.824
3944.03
3018.04
492.597
371.043
361.742
340.319
298.476
237.706
178.293
147.172
4158.99
2991.19
551.165
440.87
423.748
390.485
333.094
255.825
183.939
147.543
3784.94
2543.74
619.536
521.394
493.401
445.113
369.775
274.506
189.618
147.923
3435.44
2199.26
703.679
611.866
569.805
503.426
407.819
293.347
195.184
148.302
3153.45
1976.78
803.984
711.645
652.042
564.579
446.493
311.901
200.488
148.675
2941.68
1851.05
918.767
819.663
739.144
627.8
485.258
329.773
205.537
149.58
2798.24
1801.91
1046.59
934.822
830.042
692.204
523.507
346.617
210.166
150.544
142.349
142.346
142.345
142.345
142.349
142.362
142.409
142.635
143.777
148.826
142.404
142.385
142.382
142.385
142.414
142.491
142.706
143.404
145.612
151.002
142.736
142.626
142.581
142.595
142.718
142.982
143.546
144.825
147.225
150.558
144
143.622
143.392
143.437
143.817
144.512
145.709
147.344
148.866
149.697
148.039
147.212
145.887
145.95
146.814
148.295
150.284
151.579
150.913
148.863
186.785
171.859
152.102
151.749
153.419
155.998
158.523
158.248
153.73
148.256
680.137
582.794
170.453
162.897
165.594
169.427
171.669
168.02
157.61
147.946
1271.01
1311.07
227
182.046
185.494
189.956
190.61
181.337
162.709
147.926
1828.74
1796.67
277.148
210.765
214.843
218.886
215.917
198.329
169.036
148.151
2180.42
1669.73
314.512
251.231
255.407
257.19
247.679
218.722
176.473
148.565
2506.38
1627.79
368.165
304.693
307.488
304.615
285.456
241.976
184.797
149.109
3041.52
2244.51
462.518
371.936
370.926
360.508
328.5
267.472
193.752
149.731
3620.49
2890.87
576.252
453.063
445.488
424.182
375.838
294.56
203.097
150.393
3940.16
2935.2
663.331
547.32
530.312
494.558
426.46
322.64
212.584
151.064
3676.27
2554.5
759.646
654.269
624.168
570.022
479.245
351.127
221.955
151.723
3423.56
2289.27
874.537
773.031
725.641
649.288
533.107
379.405
230.96
152.36
3232.25
2135.3
1006.8
902.1
833.362
731.31
587.117
406.827
239.363
152.971
3105.13
2070.59
1155
1040.11
945.967
815.032
640.503
432.711
246.918
153.546
3038.9
2076.4
1317.19
1185.75
1062.4
899.621
692.687
456.635
253.771
155.942
3029.34
2138.43
1491.45
1337.51
1181.45
984.087
742.909
478.246
259.501
157.801
142.37
142.356
142.355
142.354
142.364
142.393
142.47
142.791
144.783
158.411
142.563
142.484
142.479
142.476
142.548
142.714
143.071
143.981
147.173
158.56
143.652
143.237
143.114
143.112
143.418
144.006
144.995
146.643
149.416
154.185
147.212
146.032
145.569
145.598
146.494
148.005
150.155
152.43
152.647
151.622
155.291
153.146
152.208
152.496
154.387
157.405
161.086
162.724
157.559
150.362
172.029
168.263
166.023
166.92
170.355
175.311
180.254
178.566
164.604
150.038
298.663
232.117
191.303
192.066
197.451
204.517
209.048
200.628
173.992
150.382
885.716
846.175
256.397
231.337
238.26
246.293
247.976
228.918
185.62
151.17
1549.37
1575.73
345.394
287.288
294.697
301.398
296.716
262.73
199.1
152.224
2041.21
1635.47
425.518
361.224
367.697
369.78
354.106
300.642
213.918
153.421
2517.14
1777.1
526.542
453.52
456.314
449.745
418.22
341.215
229.481
154.663
3174.27
2557.98
673.891
563.783
558.878
539.144
487.157
383.323
245.29
155.885
3700.38
2947.24
820.853
690.08
673.509
636.087
559.426
426.003
261.026
157.058
3664.61
2683.42
952.185
830.984
798.245
738.463
633.606
468.485
276.299
158.163
3525.23
2493.12
1103
984.717
930.716
843.898
708.203
509.994
290.656
159.184
3434.52
2406
1273
1149.23
1068.88
951.075
781.723
549.664
303.729
160.142
3396.56
2401.21
1459.9
1322.66
1211.42
1059.18
853.503
586.512
315.178
161.043
3410.95
2462.38
1661.57
1503.38
1357.05
1167.37
922.947
619.716
324.56
161.869
3474.11
2576.33
1876.07
1690.26
1505.07
1275
989.453
649.117
332.17
167.112
3581.58
2732.35
2101.02
1881.73
1654.33
1381.03
1052
674.227
337.503
170.182
142.457
142.393
142.393
142.382
142.413
142.492
142.647
142.898
143.597
149.88
143.137
142.829
142.818
142.77
142.966
143.402
144.174
145.18
146.011
148.549
146.928
145.372
144.871
144.726
145.529
147.056
149.288
151.561
151.096
148.481
157.688
153.942
152.309
152.102
154.244
157.936
162.531
165.935
160.144
149.47
178.24
172.739
170.251
170.641
174.863
181.357
188.763
190.9
173.34
151.198
211.607
205.431
202.981
205.17
212.102
221.804
231.58
227.091
190.707
153.389
273.696
260.894
254.946
259.432
269.532
281.919
291.188
274.014
211.997
155.866
677.415
513.101
337.941
336.481
348.828
361.627
365.726
329.796
236.391
158.419
1405.49
1339.1
493.404
438.514
450.281
459.016
451.794
391.683
262.535
160.895
2042.06
1710.32
636.031
564.806
572.802
571.673
545.727
455.657
289.231
163.222
2679.45
2110.72
803.643
713.379
712.692
695.433
643.974
519.221
315.602
165.343
3424.15
2869.86
1024.23
881.515
865.749
826.21
744.06
581.724
341.141
167.245
3795.28
2921.41
1208.01
1064.9
1028.51
961.212
844.659
642.762
365.635
168.967
3784.19
2825.01
1402.73
1261.05
1197.73
1097.57
944.382
701.946
388.364
170.511
3794.34
2810.05
1616.73
1467.28
1370.92
1233.56
1041.87
758.008
408.442
171.881
3845.24
2867.41
1848.24
1681.23
1546.76
1368.73
1135.7
809.701
425.409
173.175
3938.16
2984.45
2094.98
1901.54
1724.6
1503.27
1226.01
855.619
438.871
174.403
4072.5
3150.56
2354.65
2127.16
1904.13
1636.91
1312.36
895.014
448.035
175.53
4245.14
3356.8
2625.38
2357.48
2085.23
1769.16
1393.79
927.78
452.84
176.679
4451.08
3594.55
2904.35
2590.92
2266.68
1898.39
1468.43
953.146
454.354
184.472
142.799
142.534
142.538
142.475
142.569
142.829
143.368
144.066
143.331
143.648
145.175
144.009
143.997
143.724
144.264
145.507
147.823
150.737
149.081
146.549
158.399
152.737
150.654
149.689
151.839
155.994
162.125
168.32
161.986
150.302
189.593
178.734
173.247
171.323
176.565
185.563
196.415
204.389
184.028
154.896
237.848
225.978
219.257
218.626
228.061
241.873
257.416
261.447
214.108
159.949
304.636
295.793
292.139
296.124
310.41
327.746
346.824
337.607
251.467
165.087
402.142
394.405
394.222
405.586
423.545
442.477
459.993
428.513
294.387
170.006
701.712
575.156
533.398
546.292
566.308
581.543
588.775
528.421
340.436
174.475
1505.31
1379.18
760.453
718.454
734.255
738.5
724.718
628.901
385.194
178.335
2297.07
2021.68
988.042
917.181
922.534
906.78
860.869
721.37
428.157
181.693
3089.78
2649.61
1241.37
1137.25
1124.06
1079.46
993.608
806.825
468.345
184.517
3900.32
3338.7
1537.86
1373.49
1332.25
1251.32
1122.33
889.748
505.981
186.91
4207.53
3366.74
1789.77
1619.07
1542.73
1420.13
1248.13
970.085
542.064
189.06
4330.74
3410.32
2054.59
1871.63
1752.42
1585.22
1371.63
1047.03
573.081
190.884
4467.75
3516.16
2336.01
2129.58
1962.79
1747.76
1491.47
1118.78
597.939
192.459
4633.74
3679.14
2632.78
2393.2
2174.38
1909.8
1606.69
1183.04
616.67
194.009
4834.9
3892.51
2944.23
2662.26
2387.99
2072.45
1718.05
1237.83
629.491
195.611
5070.49
4146.09
3265.98
2935.14
2603.4
2234.65
1824.04
1281.6
634.501
197.118
5334.73
4431.51
3596.48
3211.84
2821.07
2395.55
1922.06
1313.94
632.072
198.732
5620.55
4739.6
3931.69
3489.85
3038.04
2550.93
2007.97
1333.3
622.803
199.895
144.114
142.995
143.101
142.788
143.062
143.895
145.874
149.378
145.42
145.944
152.156
147.763
147.919
146.782
148.24
151.579
158.565
169.604
160.768
153.236
197.46
177.57
169.137
164.88
170.474
181.081
197.871
217.516
191.289
162.103
277.856
250.955
234.238
226.749
237.924
257.552
283.152
302.396
240.047
171.937
374.991
357.229
342.675
339.025
358.554
383.7
414.344
421.025
302.747
181.96
490.738
487.996
487.366
498.779
526.927
551.829
582.651
563.637
373.947
190.572
646.834
654.389
670.303
698.291
730.696
750.959
774.482
720.283
450.983
198.038
1022.42
907.024
895.042
931.415
962.429
968.649
971.05
876.192
528.203
204.166
1916.59
1713.27
1213.62
1196
1212.42
1193.27
1155.85
1011.93
597.622
209.363
2815.37
2572
1542.73
1479.17
1472.08
1415.27
1325.34
1119.92
660.585
213.382
3724.53
3391.73
1894.05
1775.25
1732.19
1627.28
1478.77
1213.75
715.613
216.406
4636.66
4080.86
2274.9
2078.77
1986.01
1825.92
1621.06
1310.37
766.411
218.98
5040.26
4222.88
2603.5
2378.91
2230.58
2012.98
1762.57
1411.89
815.228
221.027
5261.76
4369.28
2938.09
2678.74
2468.21
2194.32
1905.26
1510.74
852.598
222.808
5488.74
4564.05
3285
2984.93
2710.15
2378.13
2049.09
1602.59
878.915
224.446
5743.95
4815.59
3653.43
3302.39
2959.54
2570.65
2194.48
1685.48
897.121
226.749
6041.97
5120.33
4040.72
3630.24
3217.46
2772.35
2339.17
1753.89
905.433
228.852
6374.28
5457.1
4430.78
3956.32
3477.24
2974.58
2473.78
1802.47
900.291
230.926
6712.89
5811.69
4824.11
4283.95
3739.29
3172.9
2590.89
1827.16
882.63
233.382
7053.59
6175.57
5214.07
4607.73
3995.04
3356.72
2683.55
1828.03
853.384
235.855
149.42
144.521
145.339
143.829
144.604
147.146
153.823
171.515
150.597
154.711
175.215
158.977
160.648
155.885
160.462
168.947
186.883
227.512
184.102
173.431
315.677
255.524
226.101
208.604
225.003
252.666
288.591
344.265
250.715
192.876
482.338
430.629
391.452
369.444
397.303
438.763
481.682
518.12
349.097
211.334
632.847
632.245
616.748
609.038
651.734
693.114
732.215
731.924
465.566
227.492
802.478
839.291
869.385
904.238
958.875
985.132
1011.81
963.324
583.719
239.029
1038.56
1093.82
1156.16
1222.71
1284.38
1287.13
1291.76
1189.03
695.206
247.273
1564.4
1453.93
1484.68
1566.59
1612.51
1581.51
1541.75
1390.69
805.873
253.703
2578.07
2392.41
1914.77
1925.95
1940.63
1858.56
1752.83
1538.36
926.565
260.574
3573.26
3442.99
2353.58
2288.57
2255.29
2109.62
1928.34
1635.15
1010.39
263.78
4583.6
4444.26
2807.73
2648.34
2550.1
2331.9
2074.29
1713.52
1074.54
265.822
5611.6
5242.25
3278.06
3000.36
2823.01
2528.44
2204.79
1808.08
1139.3
268.602
6154.34
5465.4
3674.11
3337.49
3073.21
2708
2343.13
1928.9
1176.56
269.234
6458.21
5674.21
4066.5
3668.74
3324.64
2892.05
2505.49
2059.54
1213.4
270.972
6755.15
5926.35
4476.76
4031.13
3602.48
3102.94
2688.71
2192.28
1247.8
273.699
7089.38
6262.52
4932.29
4424.06
3911.35
3349.81
2890.2
2313.1
1267.91
277.581
7500.23
6673.13
5420.37
4840.91
4247.08
3626.72
3100.97
2412.58
1269.81
280.86
7952.8
7104.63
5891.35
5230.76
4570.45
3893.82
3284.37
2475.92
1248.03
284.176
8325.74
7502.91
6344.21
5610.8
4883.6
4134.97
3417.06
2478.93
1202.93
288.445
8668.82
7888.14
6773.53
5971.78
5169.52
4335.34
3497.55
2434.91
1143.33
295.892
171.052
149.492
154.536
147.293
149.394
156.76
175.896
265.17
167.296
191.861
241.433
189.805
202.641
180.804
197.288
217.384
251.53
379.611
241.345
234.859
553.56
436.655
399.372
317.749
373.127
444.522
490.644
604.589
367.435
268.356
775.203
760.437
745.922
669
748.415
824.572
864.681
898.986
538.723
294.357
976.588
1055.36
1125.47
1116.72
1212.47
1265.78
1270.78
1215.22
704.877
310.417
1226.3
1356.28
1496.57
1597.02
1704.57
1704.98
1661.95
1524.41
863.209
320.248
1600.19
1726.35
1888.32
2047.49
2157.22
2096.58
2004.07
1814.08
1053.52
327.429
2368.36
2244.23
2328.02
2486.68
2557.78
2429.57
2268.93
2034.28
1222.95
332.937
3465.77
3382.13
2883.38
2922.56
2928.6
2714.89
2464.99
2149.88
1343.05
333.073
4528.78
4697.35
3448.37
3342.06
3256.31
2949.28
2607.05
2201.64
1404.49
332.17
5608.64
5900.55
4010.6
3739.04
3543.34
3139.3
2711.9
2237.79
1450.66
332.159
6709.26
6762.84
4557
4110.11
3796.9
3298.07
2804.83
2308.07
1521.78
334.4
7437.41
7015.92
4997.2
4455.3
4022.8
3444.17
2924.68
2452.7
1601.54
341.484
7811.6
7247.26
5427.45
4816.15
4283.69
3629.1
3110.57
2639.45
1660.72
347.087
8164.55
7538.62
5902.58
5259.02
4625.86
3893.84
3362.2
2829.79
1672.4
351.006
8565.47
7948.64
6471.44
5766.92
5044.36
4246.55
3671.11
3021.25
1691.39
356.135
9076.95
8503.57
7113.86
6317.66
5524.9
4666.16
4010.94
3191.43
1703.6
363.066
9687.42
9063.38
7701.51
6790.32
5950.17
5055.26
4283.62
3292.29
1665.44
369.346
10008
9445.12
8173.88
7214.2
6299.29
5314.18
4401.39
3248.18
1587.61
378.67
10265.5
9784.83
8590.04
7579.22
6567.37
5476.6
4414.5
3111.12
1486.81
404.643
260.185
164.741
192.079
159.692
162.781
184.455
217.389
665.877
215.313
354.853
357.952
255.309
316.182
253.734
269.456
315.57
347.997
651.215
361.92
399.489
673.041
658.058
709.337
589.861
662.52
782.738
806.919
961.758
567.204
426.867
1033.56
1152.5
1295.57
1229.54
1352.53
1453.71
1405.12
1371.91
810.838
440.44
1351.69
1566.8
1821.04
1914.82
2092.54
2124.25
1974.09
1793.86
1052.55
446.676
1764.84
2031.76
2320.29
2577.82
2784.95
2695.46
2455.6
2181.76
1286.91
447.29
2380.48
2595.37
2840.69
3143.74
3334.83
3128.92
2816.92
2494.49
1475.14
438.714
3351.62
3362.28
3406.05
3649.98
3753.07
3439.13
3044.4
2682.14
1637.4
432.869
4439.67
4706.28
4093.78
4127.53
4104.83
3673.97
3182.3
2735.39
1747.96
430.655
5499.1
6151.04
4783.72
4574.71
4393.51
3841.87
3259.07
2725.93
1784.86
429.684
6576.6
7437.58
5446.38
4980.26
4628.02
3960.08
3301.01
2712.75
1815.81
432.196
7677.65
8375.11
6060.44
5342.51
4825.89
4053.39
3343.63
2756.27
1895.63
438.745
8582.33
8711.79
6540.09
5686.8
5017.03
4155.56
3442.07
2918.23
1986.82
451.1
9121.25
8995.06
7010.69
6090.44
5309.38
4357.06
3668.34
3172.95
2067.98
465.855
9575.82
9350.47
7543.95
6640.66
5769.44
4720.88
4026.55
3467.8
2153.73
479.965
10063.8
9829.66
8216.83
7307.42
6370.62
5254.53
4495.69
3763.25
2193.86
489.183
10647.1
10508.8
9048.3
8065.74
7069.28
5892.01
5017.78
4019.53
2191.33
496.849
11130.3
11118.6
9749.05
8665.86
7621.45
6424.92
5418.32
4166.44
2127.88
512.058
11326.3
11413.3
10196
9077.45
7934.3
6629.89
5450.56
4020.46
2009.96
535.173
11472.5
11636.5
10527
9352.79
8090.76
6662.66
5298.71
3727.82
1853.84
629.933
643.531
207.384
348.456
203.045
203.699
281.018
161.009
201.246
325.254
723.56
550.541
362.447
597.788
400.857
417.211
546.675
347.377
455.174
575.999
661.552
650.792
812.931
1172.28
1015.17
1123.72
1335.73
1088.54
1071.54
871.817
659.106
1060.24
1478.2
1944.18
1955.78
2195.33
2334.01
1937.75
1718.15
1171.76
640.051
1682.73
2210.27
2654.9
2850.61
3232.5
3214.66
2675.55
2286.98
1433.38
626.22
2410.18
2970.57
3325.62
3673.41
4085.36
3856.39
3218.77
2745.92
1689.85
604.869
3259.57
3819.78
4016.84
4366.1
4678.39
4259.4
3561.98
3064.92
1906.6
577.021
4226.07
4867.1
4749.55
4942.62
5059.58
4481.7
3726.23
3202.89
2038.73
570.716
5234.87
6234.31
5600.86
5449.36
5339.18
4611.37
3785.04
3190.93
2126.61
573.24
6238.1
7606.46
6415.45
5901.8
5543.84
4674.08
3783.72
3124.32
2149.33
582.005
7265.6
8837.36
7165.14
6297.94
5697.86
4698.8
3760.23
3074.42
2180.64
595.898
8322.48
9824.15
7839.27
6651.9
5839.42
4725.8
3762.37
3110.02
2271.94
611.037
9303.09
10404.1
8346.37
7014.6
6027.04
4810.72
3861.31
3303.95
2388.47
651.497
10117.6
10860.5
8845.85
7482.11
6401.28
5076.63
4149.52
3642.62
2540.37
686.617
10782.2
11352.5
9429.51
8129.97
7034.23
5601.96
4639
4039.84
2642.95
695.561
11312.6
11915.4
10183.1
8951.16
7875.58
6376.96
5288.6
4423.1
2671.39
702.952
11645.5
12482.7
11081.9
9919.2
8799.13
7249.74
5972.91
4726.04
2659.73
713.94
11791.2
12900.9
11827.1
10653.1
9442.74
7879.66
6451.3
4841.05
2568.2
761.499
11904.8
13069.1
12206.8
10977.7
9609.44
7905.91
6288.99
4528.63
2394.82
818.563
12008.3
13142.6
12354.3
11050.9
9524.26
7680.64
5885.12
4053.21
2147.29
832.339
210.15
293.696
1003.58
367.816
323.484
735.404
177.73
272.015
584.903
441.486
326.408
510.62
1124.93
699.089
738.222
1186.27
449.339
637.799
940.151
772.313
525.864
1005.44
1805.06
1628.61
1853.61
2219.73
1405.42
1319.62
1228.88
935.337
861.178
1766.34
2676.05
2780.77
3195.91
3368.37
2437.47
2002.4
1500.76
856.333
1417.81
2720.64
3626.72
3890.68
4393.86
4310.19
3266.42
2602.41
1759.62
854.002
2256.49
3835.74
4579.28
4876.31
5325.43
4940.83
3823.22
3068.06
2001.68
796.249
3290.95
5045.2
5506.08
5673.92
5926.05
5266.42
4121.24
3353.83
2172.88
717.361
4349.73
6291.98
6432.53
6305.44
6268.76
5378.4
4210.33
3445.72
2304.28
783.248
5382.89
7594.24
7425.19
6832
6476.5
5393.16
4187.36
3394.53
2377.74
805.247
6387.28
8842.47
8307.21
7275.5
6595.27
5347.8
4113.56
3302.42
2429.93
832.949
7384.53
9980.45
9096.11
7662.26
6684.92
5293.77
4042.34
3251.06
2496.32
869.772
8374.12
10971.5
9815.06
8037.69
6822.83
5299.61
4037.71
3313.01
2598.44
901.645
9298.5
11754.2
10356.5
8461.05
7081.93
5438.59
4182.6
3559.85
2774.7
1045.27
10079.9
12411.2
10892.8
9030.19
7593.49
5846.04
4569.71
3964.63
2943.33
1071.54
10611.8
12960.3
11523.6
9809.04
8414
6581.53
5192.62
4412.06
3044.44
1027.63
10935.9
13416.8
12262.3
10758
9442.38
7557.95
5960.87
4781.98
3044.05
1037.27
11196.1
13806.7
13043.1
11776.4
10500.8
8542.59
6688.48
4988.99
2966.46
1060.02
11462.8
14083.4
13751.1
12569
11199.8
9136.24
7065.84
4961.36
2798.06
1241.21
11699.5
14151
13938.6
12656.1
11055.7
8846.24
6618.19
4511.57
2569.47
1361.24
11857.8
14055.8
13762.2
12362.5
10541.2
8235.11
5917.89
3878.83
2229.55
1273.5
340.342
291.655
686.623
1013.03
577.788
2734.55
200.502
416.6
1889.05
902.32
512.702
611.516
1227.61
1194.34
1128.08
2497.75
537.384
795.863
1590.28
960.885
749.007
1293.92
2329.55
2306.64
2462.93
3114.2
1534.02
1341.66
1464.37
777.278
1094.46
2219.45
3479.57
3599.71
3903.36
3998.58
2568.08
1887.3
1549.32
1028.86
1574.23
3335.88
4691.18
4885.07
5191.58
4874.6
3450.06
2391.31
1709.29
1231.26
2187.19
4565.71
5885.38
6011.04
6192.77
5517.76
4044.88
2827.72
1880.95
973.016
2935.7
5862.54
6989.65
6895.15
6829.89
5846.49
4338.9
3136.22
2008.94
787.088
3794.16
7124.77
8015.4
7578.67
7194.66
5937.8
4400.03
3262.64
2206.35
1300.78
4731.01
8366.13
8999.4
8135.94
7397.59
5914.52
4339.84
3240.58
2334.34
1208.85
5684.56
9527.79
9872.35
8579.96
7486.73
5815.67
4228.05
3175.97
2446.29
1244.85
6598.9
10581
10650.3
8988.39
7579.84
5745.99
4151.01
3169.7
2571.3
1329.81
7432.57
11509.1
11358.2
9443.76
7808.27
5826.75
4199.12
3299.5
2713.13
1391.62
8160.96
12284.5
11965.1
9974.61
8226.86
6126.57
4445.56
3606.66
2935.25
1941.45
8806.65
12972.4
12568.9
10662.2
8915.29
6744.34
4951.25
4000.24
3032.12
1653.35
9391.54
13549.1
13236.3
11537.9
9876.28
7644.55
5641.21
4321.82
3021.86
1383.83
9935.45
14045.6
13935.3
12499.1
10914
8607.63
6326.59
4487.31
2931.72
1559.51
10424.6
14431.5
14602.1
13386.4
11798
9352.07
6783.06
4478.94
2796.16
1643.75
10840.7
14679.3
15181.6
14011.2
12240.6
9660.31
6853.35
4265.35
2511.67
1320.03
11125.2
14586.1
14984.9
13659.9
11628.1
9089.14
6139.73
3755.81
2210.2
1309.3
11238.5
14219.5
14331.7
12820.3
10624.8
8008.99
5224.29
3088.54
1829.42
1144.65
918.375
462.317
2016.28
287.225
525.796
1648.21
207.523
276.351
437.53
560.219
918.3
938.343
2098.69
955.036
1187.61
1586.95
630.543
577.568
634.384
572.844
1071.78
1811.35
3188.86
2451.75
2561.15
2352.58
1461.89
946.721
763.226
600.226
1380.06
2888.33
4452.94
4000.29
3960.69
3310.34
2304.71
1334.47
927.654
723.65
1833.13
4108.84
5731.87
5421.78
5232.29
4267.12
3041.82
1700.32
1082.51
848.436
2401.98
5347.19
6915.68
6629.11
6306.41
5114.86
3658.97
2064.63
1256.61
676.906
3057.69
6576.35
7955.32
7590.15
7096.69
5730.71
4092.99
2360.59
1401.62
589.456
3762.77
7689.72
8871.15
8350.42
7630.6
6073.54
4257.25
2572.47
1624.42
1131.43
4500.67
8771.25
9755.16
8988.77
7965.35
6166.8
4233.93
2690
1834.16
1516.05
5249.53
9782.75
10562.1
9522.41
8128.83
6107.14
4144.17
2744.01
2037.12
1918.41
5990.03
10711.5
11303.8
10023.7
8330.01
6122.64
4122.29
2825.41
2224.81
2193.35
6706.12
11550.1
11996.5
10565.7
8744.04
6401.02
4279.02
2990.75
2374.27
2244.38
7384.7
12284.5
12625.7
11164.1
9328.4
6936.34
4650.98
3206.86
2489.13
2264.18
8029.63
13002.8
13292.4
11858.2
10060.8
7627.26
5165.16
3387.39
2449.27
1691.57
8628.84
13619.3
13992
12638.8
10857.6
8317.8
5612.56
3469.25
2333.65
1304.76
9167.27
14137.7
14666
13378.3
11524.4
8820.52
5875.16
3391.85
2145.98
1300.99
9614.78
14456
15213.1
13942.1
11926.9
9040.94
5920.55
3199.26
1946.72
1237.85
9944.18
14546.5
15491.5
14139.4
11902.9
8876.44
5671.53
2881.01
1678.77
1075.53
10090.3
14150.8
14799.7
13314.2
10899
7946.29
4922.43
2454
1418.47
935.933
10020.4
13375.3
13623.9
11957.7
9500.07
6663.24
3955.75
1938.84
1129.95
763.723
883.292
421.604
1103.84
507.361
914.523
196.545
275.657
495.776
1155.13
261.623
889.757
1046.59
2015.64
1371.33
1646.45
628.401
656.766
700.981
862.062
258.688
1055.06
2043.96
3371.19
2794.63
2760.3
1472.99
1184.6
819.131
676.503
262.322
1356
3158.06
4679.28
4172.1
3834.6
2386.1
1729.33
948.209
608.508
300.302
1768.53
4320.07
5860.85
5389.23
4800.67
3252.03
2230.17
1065.43
594.035
344.544
2273.22
5511.64
6859.57
6383.4
5669.74
4051.29
2715.54
1249.36
691.489
444.011
2836.1
6592.49
7746.67
7237.85
6384.46
4729.28
3109.37
1415.17
794.765
544.772
3436.92
7606.87
8580.62
7983
6992.78
5282.9
3415.53
1594.87
936.574
695.479
4057.18
8540.99
9352.58
8648.6
7509.52
5682.52
3602.71
1731.7
1057.19
829.961
4684.28
9421.17
10096.6
9268.09
7931.28
5923.03
3689.81
1838.2
1177.51
951.234
5305.68
10243.9
10809.6
9864.28
8351.66
6172.59
3798.58
1936.03
1274.43
1032.89
5909.16
11003.2
11487.2
10455.3
8845.16
6554.33
4006.35
2032.77
1327.21
1056.62
6486.47
11713.5
12150.4
11050.5
9368.03
6985.66
4259.53
2118.16
1355.99
1038.4
7024.92
12340.7
12761.8
11623
9873.04
7358.04
4454.23
2122.22
1308.31
942.355
7512.32
12890.6
13332.7
12135.9
10312.2
7602.53
4547.83
2074.22
1233.53
843.355
7912.19
13204.9
13835.3
12547.6
10524.4
7618.33
4445.49
1904.49
1067.54
707.042
8196.6
13282.9
14105.4
12683.9
10449
7383.84
4187.16
1704.33
914.717
597.212
8339.69
13072.4
13983.1
12413.8
9986.47
6852.28
3756.17
1447.3
746.817
488.471
8291.64
12356.4
12979.6
11304.4
8804.8
5869.79
3135.17
1195.46
615.57
410.545
8036.53
11258.9
11488.7
9743.83
7346.32
4693.58
2402.25
923.742
497.049
342.566
774.722
747.935
4105.99
1234.83
3481.41
243.965
438.881
1060.86
308.151
160.834
800.652
1341.4
3557.24
2095.62
3051.75
567.806
658.466
788.924
258.077
161.191
926.538
2045.48
3814.34
2992.26
3080.64
1024.63
804.675
607.873
226.28
162.826
1140.08
2821.47
4394.6
3803.6
3351.26
1539.53
1001.52
514.685
212.494
170.306
1431.29
3664.94
5097.56
4552.47
3759.46
2041.75
1188.35
467.465
208.316
179.304
1800.35
4600.58
5857.17
5288.37
4320.48
2635.24
1494.85
502.351
224.649
197.285
2230.6
5534.62
6615.45
5983.31
4906.73
3194.71
1772.95
560.874
249.152
216.98
2703.88
6435.96
7386.75
6673.45
5508.99
3762.6
2077.26
679.668
300.726
246.676
3202.11
7288.93
8144.82
7347.47
6088.13
4243.43
2315.55
783.922
353.903
275.491
3709.03
8092.44
8887.14
8016.4
6634.14
4635.61
2512.74
881.285
412.255
303.772
4208.77
8833.36
9594.77
8661.47
7159.14
4997.6
2691.14
956.923
453.716
322.571
4686.17
9497.31
10247.4
9254.38
7657.61
5355.45
2849.74
996.262
462.86
325.95
5128.68
10079
10838.9
9783.19
8091.2
5657.54
2975.24
1007.17
453.38
319.156
5520.61
10544
11319.8
10185.5
8377.67
5763.28
2954.05
937.284
413.432
298.099
5841.71
10842.7
11671.8
10436.9
8477.11
5693.99
2844.75
852.72
373.457
276.406
6056.24
10862.7
11788.8
10414.4
8259.66
5350
2547.28
725.058
327.001
250.002
6146.8
10626.5
11608.4
10085.6
7792.5
4878.82
2233.56
618.86
289.753
228.443
6100.9
10121.2
11040
9415.27
7074.5
4264.05
1855.07
513.839
256.091
207.719
5907.1
9286.34
9927.63
8270.82
6064.95
3533.05
1515.45
436.459
230.721
192.57
5566.58
8172.86
8435.06
6852.61
4866.02
2739.4
1153.29
365.622
209.669
179.025
541.803
406.971
720.466
2930.97
2482.68
309.496
825.742
272.81
161.643
143.927
544.327
790.955
1277.71
2516.17
1950.31
463.945
633.132
234.682
156.018
144.266
614.575
1201.45
1790.69
2356.08
1706.56
574.372
514.846
211.208
152.827
144.822
750.769
1743.77
2476.01
2547.42
1790.77
752.313
476.16
202.018
152.11
146.286
941.389
2348.74
3193.1
2909.31
2020.88
942.774
478.24
200.796
152.902
148.127
1202.93
3149.63
4058.32
3570.96
2567.21
1315.58
579.03
214.753
156.371
151.389
1518.62
3977.01
4932.92
4267.11
3170.83
1723.11
712.557
235.076
161.302
155.11
1871.24
4792.61
5825.95
5052.59
3862.44
2302.68
957.114
273.048
169.518
160.369
2239.93
5552.53
6655.96
5823
4545.8
2810.4
1204.21
314.467
178.609
165.527
2606.36
6239.11
7408.02
6570.81
5206.22
3277.56
1457.07
361.861
188.424
170.431
2954.48
6837.2
8068.24
7231.36
5777.85
3668.48
1646.13
397.526
196.103
173.735
3270.48
7332.56
8616.94
7734.09
6187.3
3930.94
1717.31
408.475
199.417
174.528