/*--------------------------------*- C++ -*----------------------------------*\
  =========                 |
  \\      /  F ield         | OpenFOAM: The Open Source CFD Toolbox
   \\    /   O peration     | Website:  https://openfoam.org
    \\  /    A nd           | Version:  7
     \\/     M anipulation  |
\*---------------------------------------------------------------------------*/
FoamFile
{
    version     2.0;
    format      ascii;
    class       volScalarField;
    location    "1";
    object      ILambda_3_0;
}
// * * * * * * * * * * * * * * * * * * * * * * * * * * * * * * * * * * * * * //

dimensions      [1 0 -3 0 0 0 0];

internalField   nonuniform List<scalar> 
4000
(
801.133
803.737
523.908
296.835
201.943
165.543
151.388
145.916
143.865
143.091
1048.01
1010.06
585.79
305.346
203.759
166.342
151.673
146.001
143.892
143.084
1102.54
989.359
593.837
305.66
204.809
167.135
151.858
146.006
143.87
143.057
1007.37
896.666
581.632
304.271
206.261
167.677
151.833
145.93
143.821
143.024
872.826
849.844
566.642
304.065
208.353
167.714
151.635
145.801
143.756
142.987
783.06
820.565
554.332
306.2
209.707
167.335
151.302
145.631
143.678
142.949
759.57
803.577
546.501
309.705
209.582
166.574
150.851
145.424
143.589
142.909
738.985
788.783
547.862
314.507
208.499
165.513
150.292
145.182
143.492
142.869
717.956
787.786
556.55
315.316
206.171
164.108
149.625
144.91
143.388
142.831
731.083
798.999
565.976
311.507
202.756
162.366
148.865
144.615
143.281
142.795
752.971
811.759
558.333
303.798
198.402
160.31
148.033
144.307
143.174
142.761
787.169
827.229
543.704
293.297
193.174
157.988
147.154
143.996
143.07
142.73
839.269
846.51
537.664
279.646
186.94
155.463
146.259
143.694
142.973
142.702
875.05
857.519
528.603
262.776
179.592
152.818
145.384
143.413
142.882
142.675
920.04
849.433
508.626
244.641
171.202
150.158
144.571
143.161
142.8
142.65
974.359
820.464
468.864
222.663
161.966
147.62
143.856
142.945
142.723
142.622
942.277
753.482
407.127
198.834
153.845
145.439
143.268
142.764
142.65
142.59
770.82
638.866
322.72
174.91
148.014
143.706
142.813
142.613
142.577
142.55
487.326
415.9
229.19
155.439
144.301
142.709
142.504
142.485
142.496
142.496
223.461
173.953
157.847
144.5
142.642
142.4
142.378
142.391
142.41
142.425
1325.65
1617.2
1060.18
588.578
340.862
227.478
177.789
156.687
148.065
144.656
1662.9
1973.07
1140.88
597.207
340.077
226.494
177.081
156.224
147.802
144.517
2037.22
2341.8
1171.35
591.005
336.416
224.828
176.065
155.612
147.475
144.357
2265.54
2454.69
1138.1
574.832
331.587
222.678
174.744
154.86
147.098
144.182
2152.19
2193.98
1062.68
556.801
326.843
220.082
173.126
153.981
146.678
143.997
1895.67
1954.34
1001.61
544.235
322.375
216.97
171.199
152.984
146.225
143.808
1733.85
1785.37
960.689
536.42
317.427
213.156
168.94
151.879
145.749
143.619
1689.5
1596.21
936.835
531.371
311.274
208.479
166.348
150.688
145.263
143.435
1661.25
1524.45
940.397
526.617
303.054
202.795
163.45
149.442
144.782
143.262
1668.45
1583.11
958.426
517.917
291.995
196.081
160.318
148.185
144.323
143.104
1731.64
1676.76
970.788
501.638
277.66
188.447
157.067
146.967
143.9
142.964
1822.96
1805.96
973.475
476.282
260.098
180.175
153.846
145.84
143.528
142.844
1897.73
1976.97
956.522
439.939
239.671
171.68
150.82
144.851
143.215
142.744
1952.29
2057.84
896.007
391.524
217.359
163.487
148.154
144.033
142.964
142.662
1991.2
1959.06
785.328
334.201
195.006
156.199
145.98
143.404
142.772
142.595
1835.28
1762.79
636.801
273.7
174.86
150.336
144.369
142.956
142.63
142.538
1363.01
1354.4
457.813
217.392
159.139
146.208
143.31
142.665
142.528
142.488
760.258
706.512
285.754
174.6
149.051
143.775
142.713
142.492
142.453
142.442
380.804
279.331
184.245
151.663
144.168
142.697
142.441
142.399
142.398
142.4
225.461
162.068
148.464
143.637
142.58
142.386
142.356
142.355
142.36
142.364
1623.43
2228.62
1667.13
998.52
568.678
341.158
230.571
179.743
157.574
148.378
1934.17
2584.83
1776.22
1011.04
563.213
335.634
226.95
177.627
156.449
147.829
2288.66
2952.35
1844.88
1005.01
552.331
328.449
222.649
175.21
155.213
147.25
2687.46
3315.89
1865.27
983.53
537.809
320.011
217.713
172.525
153.892
146.655
3083.91
3597.07
1831.64
951.296
521.192
310.501
212.177
169.605
152.51
146.058
2939.99
3435.06
1738.91
913.969
503.465
299.868
206.04
166.484
151.096
145.472
2707.98
3102.38
1623.48
878.894
484.916
287.945
199.307
163.213
149.685
144.915
2601.4
2702.37
1533.88
850.553
464.737
274.434
192.013
159.869
148.318
144.4
2550.07
2392.29
1499.7
826.504
441.074
259.058
184.288
156.555
147.04
143.94
2552.9
2455.83
1517.59
797.457
411.661
241.853
176.38
153.399
145.891
143.546
2600.44
2650.85
1526.77
750.744
375.378
223.375
168.65
150.532
144.906
143.221
2652.85
2913.61
1496.4
681.365
333.238
204.619
161.508
148.068
144.105
142.966
2657.73
3152.26
1392.76
588.397
287.849
186.837
155.339
146.085
143.492
142.774
2564.93
2951.34
1178.34
477.065
243.371
171.376
150.425
144.606
143.052
142.636
2300.01
2398.83
890.157
364.014
204.659
159.27
146.871
143.595
142.757
142.539
1670.99
1608.7
583.926
266.753
175.401
150.896
144.58
142.971
142.573
142.471
836.832
762.786
345.196
199.292
156.866
145.924
143.29
142.627
142.465
142.424
501.662
366.665
217.859
163.012
147.366
143.511
142.669
142.458
142.403
142.39
337.419
210.483
163.15
147.688
143.561
142.606
142.419
142.382
142.368
142.365
238.651
159.545
145.995
143.116
142.498
142.372
142.35
142.349
142.349
142.349
1785.71
2644.23
2239.28
1471.02
869.701
506.542
313.003
217.862
174.066
155.091
2060.32
2986.66
2372.53
1488.36
856.734
492.375
303.269
212.157
171.037
153.619
2373.3
3340.67
2471.93
1483.52
834.745
474.8
292.196
205.916
167.846
152.133
2727.31
3700.64
2530.14
1457.47
805.118
454.33
279.934
199.241
164.578
150.668
3119.29
4060.55
2539.45
1412.17
769.196
431.307
266.577
192.268
161.304
149.259
3524.65
4388.98
2489.62
1350.55
728.112
405.907
252.309
185.141
158.102
147.938
3521.94
4282.26
2367.39
1277.3
682.644
378.175
237.344
178.024
155.056
146.736
3393.95
3858.71
2199.37
1199.67
632.965
348.281
221.996
171.117
152.252
145.681
3252.31
3273.21
2061.86
1122.71
578.142
316.439
206.664
164.642
149.766
144.79
3168.86
3208.63
2005.1
1039.14
516.338
283.306
191.922
158.832
147.66
144.071
3145.41
3379.2
1934.91
929.726
446.716
250.222
178.466
153.89
145.967
143.518
3092.14
3582.52
1786.3
789.252
373.056
219.309
166.956
149.942
144.685
143.116
2882.3
3542.4
1510.22
624.751
302.006
192.755
157.84
147.012
143.777
142.843
2430.54
2724.21
1096.83
456.796
240.897
172.131
151.262
145.013
143.18
142.671
1733.57
1695.42
687.506
318.549
195.756
157.961
146.998
143.771
142.815
142.573
940.264
796.422
400.082
227.074
167.43
149.425
144.517
143.071
142.607
142.53
608.091
425.937
252.825
177.737
152.4
145.05
143.229
142.708
142.493
142.529
451.254
268.257
184.864
154.804
145.635
143.169
142.625
142.523
142.428
142.568
345.861
196.159
156.197
145.761
143.142
142.525
142.406
142.413
142.388
142.655
250.017
160.446
145.557
142.941
142.456
142.364
142.347
142.351
142.353
142.808
1891.31
2912.13
2717.06
1937.64
1203.05
705.105
418.107
269.031
197.349
164.984
2137.12
3237.86
2863.78
1953.89
1176.27
676.159
397.779
257.14
191.08
161.912
2420.06
3576.52
2979.24
1942.84
1135.51
641.333
375.327
244.619
184.642
158.894
2746.16
3923.66
3054.95
1903.32
1081.66
601.378
351.205
231.658
178.276
156.037
3119.09
4272.92
3081.13
1834.89
1015.89
557.086
325.794
218.551
172.137
153.39
3539.64
4614.38
3046.33
1738.17
939.624
509.276
299.581
205.673
166.383
151.014
3967.06
4918.06
2937.5
1615.42
854.498
458.839
273.247
193.395
161.154
148.948
3950.06
4750.16
2735.92
1471.15
762.432
406.909
247.537
182.07
156.568
147.219
3762.22
4138.2
2470.73
1313.31
665.185
355.063
223.381
172.035
152.707
145.831
3529.21
3660.11
2245.74
1147.99
564.641
305.073
201.679
163.535
149.603
144.77
3381.21
3695.08
2040.35
964.757
462.593
258.877
183.255
156.727
147.239
144.004
3157.8
3720.26
1735.91
758.717
365.175
219.288
168.696
151.616
145.539
143.488
2639.78
3020.92
1277.71
548.625
281.675
188.69
158.108
148.046
144.391
143.174
1889.19
1810.36
786.432
372.299
219.563
167.513
151.061
145.74
143.661
143.015
1078.5
859.032
456.439
257.875
180.665
154.537
146.754
144.339
143.213
142.978
741.982
492.699
292.148
195.962
159.452
147.552
144.36
143.52
142.94
143.047
583.41
334.364
213.24
165.375
149.146
144.269
143.114
143.014
142.76
143.225
477.764
251.565
174.62
151.247
144.664
142.935
142.562
142.666
142.625
143.54
380.707
199.552
155.282
145.208
142.969
142.482
142.393
142.441
142.506
144.048
272.594
163.632
145.88
142.944
142.447
142.36
142.345
142.347
142.373
144.824
1988.32
3076.76
3070.24
2333.71
1514.47
903.939
529.311
326.164
225.166
177.663
2212.51
3381.14
3214.46
2336.69
1464.61
853.181
493.781
305.591
214.616
172.422
2471.35
3696.72
3325.64
2305.76
1395.3
794.17
455.756
284.788
204.13
167.367
2771.44
4018.11
3393.75
2238.14
1307.44
728.302
416.239
264.21
194.041
162.746
3115.86
4336.98
3407.12
2131.98
1202.71
657.297
376.17
244.05
184.579
158.594
3502.77
4641.73
3352.62
1986.83
1083.69
583.134
336.469
224.874
176.026
155.004
3921.99
4916.49
3215.89
1804.56
953.848
508.01
298.147
207.292
168.561
152.008
4222.5
5092.92
2980.9
1590.35
817.997
434.306
262.62
191.802
162.279
149.602
4054.84
4570.44
2607.93
1353.44
681.724
365.199
231.249
178.72
157.205
147.756
3714.51
3783.27
2217.32
1114.42
551.138
303.311
204.863
168.208
153.282
146.413
3397.53
3572.39
1876.62
878.841
430.94
250.639
183.828
160.267
150.344
145.496
2953.28
3295.17
1458.78
644.862
327.374
209.289
168.271
154.578
148.217
144.936
2202.5
2160.04
939.685
437.63
248.436
180.28
157.756
150.622
146.724
144.682
1351.49
1002.16
530.806
295.209
197.523
162.075
151.085
147.91
145.654
144.693
927.507
587.402
342.612
219.696
169.365
151.614
146.912
146.014
144.849
144.975
754.86
421.453
252.356
180.924
154.755
146.292
144.387
144.611
144.214
145.587
641.818
328.728
203.774
160.923
147.647
143.847
143.076
143.514
143.663
146.629
541.847
263.09
174.894
150.582
144.352
142.837
142.541
142.75
143.157
148.293
433.188
210.256
156.936
145.362
142.958
142.471
142.391
142.447
142.724
150.9
302.8
168.341
146.575
143.037
142.457
142.361
142.345
142.345
142.384
154.832
2106.7
3172.24
3288.87
2613.08
1755.29
1068.56
627.103
380.47
255.1
193.106
2317.78
3448.1
3412.57
2589.36
1674.2
991.086
573.685
350.275
240.459
185.707
2559.36
3729.22
3498.36
2525.5
1569.6
904.372
518.505
321.107
226.713
178.661
2836.89
4008.29
3535.29
2418.51
1443.32
810.886
463.28
293.71
213.903
172.355
3153.42
4274.53
3511.21
2266.88
1298.45
713.555
409.474
267.933
201.951
166.756
3505.72
4513.16
3413.02
2071
1139.21
615.575
358.31
243.942
191.26
161.992
3884.54
4705.56
3228.47
1835.07
971.931
520.392
310.625
222.45
182.12
158.117
4258.33
4823
2946.26
1567.93
804.123
431.509
268.245
204.04
174.564
155.043
4221.27
4608.45
2549.58
1282.93
644.483
352.727
232.608
189.279
168.613
152.696
3809.58
3738.26
2044.67
1001
501.189
287.047
204.627
177.842
163.873
150.937
3352.56
3238.29
1609.91
747.77
380.394
235.379
183.898
169.241
160.167
149.65
2748.46
2623.71
1152.33
524.109
285.962
198.013
169.531
162.853
157.173
148.723
1891.21
1383.06
671.559
351.276
221.565
173.872
160.048
158.009
154.589
148.073
1224.8
742.879
417.581
254.21
184.548
159.293
153.419
154.08
152.326
147.644
997.474
545.354
309.561
205.365
164.528
150.785
148.57
150.406
150.113
147.381
862.808
438.003
249.041
177.783
153.55
146.178
145.108
147.144
148.012
147.279
749.416
357.259
208.754
161.266
147.489
143.87
143.317
144.49
145.986
147.228
633.753
287.422
180.081
151.479
144.473
142.869
142.592
142.949
144.202
147.135
500.213
225.26
159.893
145.886
143.042
142.487
142.401
142.481
143.004
146.764
338.967
174.182
147.504
143.181
142.479
142.364
142.346
142.345
142.388
145.406
2274.55
3243.3
3398.63
2769.25
1904.25
1179.14
699.03
427.98
289.786
214.27
2488.79
3490.95
3492.62
2712.7
1790.23
1075.41
628.963
390.649
274.277
205.843
2727.59
3737.17
3544.83
2612.91
1651.84
963.705
559.382
356.902
260.858
197.789
2988.65
3974.04
3545.11
2468.08
1492.35
847.524
492.518
327.447
248.768
190.592
3281.6
4191.25
3482.17
2277.84
1315.73
729.712
429.418
300.395
236.972
184.067
3607.78
4376.01
3345.61
2044.06
1127.77
614.545
370.8
274.978
226.419
178.482
3957.01
4512.86
3126.92
1774.43
937.494
507.187
316.943
251.566
216.67
173.641
4303.85
4582.27
2821.21
1480.31
754.996
411.815
270.263
231.542
207.794
169.507
4407.18
4511.1
2419.8
1177.83
589.176
331.871
233.289
215.27
199.658
166.033
3971.32
3706.29
1876.97
886.598
448.633
269.289
206.277
202.272
193.594
163.353
3416.65
2990
1398.93
641.887
338.743
223.355
188.363
194.128
188.818
161.046
2708.89
2158.8
951.58
446.782
259.848
192.359
177.113
188.106
184.323
158.873
1830.4
1072.43
556.432
312.885
210.495
173.476
169.399
180.658
179.221
156.708
1366.65
737.131
400.389
246.826
183.302
162.077
162.768
172.649
172.455
154.345
1183.29
600.447
322.516
209.045
167.389
154.643
155.612
163.921
165.351
152.115
1042.86
498.751
266.715
183.339
156.553
149.445
149.011
155.101
158.477
150.117
907.892
407.238
222.738
165.003
149.063
145.526
144.85
147.979
152.523
148.402
757.557
321.236
188.392
153.37
144.954
143.225
142.914
143.826
147.28
146.748
580.954
243.639
163.762
146.662
143.205
142.553
142.447
142.649
144.015
145.245
379.192
180.831
148.598
143.36
142.508
142.37
142.348
142.35
142.476
143.545
2532.78
3357.05
3465.61
2843.82
1979.48
1241.11
749.297
479.949
348.231
253.478
2782.57
3590.61
3535.24
2760.5
1840.06
1117.86
669.478
444.838
341.9
247.221
3046.09
3816.78
3562.25
2634.97
1678.85
990.015
594.118
417.798
337.085
240.483
3289.02
4026.28
3537.73
2466.72
1500.28
861.645
524.029
395.682
332.787
234.041
3565.44
4210.81
3446.24
2251.14
1304.78
731.487
455.798
372.332
325.798
227.35
3885.17
4366.58
3284.83
1994.94
1099.81
605.423
390.889
346.926
317.576
220.456
4238.04
4483.68
3051.81
1710.4
898.052
491.608
331.679
321.141
308.323
213.93
4594.61
4543.61
2740.19
1409.71
713.229
395.395
280.468
294.044
293.989
207.146
4716.18
4483.34
2342.35
1110.44
551.853
319.21
240.97
268.777
276.648
201.074
4255.49
3775.23
1805.15
827.713
421.781
263.212
217.464
252.782
269.698
196.782
3670.83
2944.66
1317.99
601.37
326.277
224.951
205.278
250.865
265.44
192.468
2950.48
2017.06
895.342
433.931
262.271
200.974
200.422
253.255
260.848
187.403
2088.38
1106.42
566.565
325.276
224.338
187.146
198.241
246.442
253.562
181.151
1661.77
854.754
447.289
273.265
202.503
178.233
190.827
229.146
233.221
173.215
1471.56
722.91
372.553
236.176
187.082
170.17
179.052
206.877
210.928
165.69
1311.32
606.121
309.607
205.09
170.973
160.909
165.81
184.71
191.716
159.477
1142.81
487.735
250.838
177.412
155.907
150.895
153.582
164.215
173.978
153.821
936.378
368.878
200.763
157.133
146.255
143.9
145.202
149.658
158.807
149.399
678.033
265.549
168.584
147.89
143.532
142.673
142.745
143.632
148.991
146.218
421.251
187.929
149.799
143.572
142.546
142.379
142.361
142.397
143.119
143.529
2897.87
3591.63
3584.3
2921.56
2042.86
1298.29
814.043
582.456
469.497
336.884
3222.25
3842.37
3649.01
2831.33
1896.67
1172.4
741.281
573.229
489.718
338.391
3548.88
4082.65
3672.42
2703.64
1734.26
1047.76
679.445
574.997
511.337
336.992
3781.8
4275.66
3642.96
2534.17
1557.3
923.148
617.332
566.472
524.269
332.796
4025.65
4426.69
3527.52
2294.5
1343.71
776.112
537.763
542.435
524.588
325.521
4342.53
4557.66
3343.57
2015.1
1117.84
631.128
455.82
504.107
510.429
315.223
4704.12
4678.03
3106.69
1715.97
901.418
504.919
378.768
454.805
488.695
306.004
5058.19
4748.72
2800.32
1419.31
714.862
407.126
313.461
405.634
480.454
299.5
5135.32
4706.11
2413.95
1126.59
562.861
336.489
272.887
361.991
482.02
293.526
4652.38
4024.8
1882.7
856.014
444.441
288.756
256.836
346.919
464.973
281.681
4082.62
3154.43
1397.93
646.211
363.501
260.944
256.058
363.848
455.489
269.685
3396.26
2201.75
990.475
497.713
313.815
247.621
264.901
391.222
438.617
254.37
2550.65
1330.94
681.386
404.11
286.626
242.813
277.051
399.853
396.463
234.12
2090.33
1082.53
568.383
357.265
274.585
241.178
278.884
377.266
365.852
217.608
1871.32
936.295
486.419
323.023
259.466
234.255
261.295
337.267
330.506
200.755
1683.22
800.744
407.116
276.817
228.878
214.383
230.889
283.02
278.874
183.165
1467.11
632.744
311.533
221.561
188.801
183.104
193.593
227.307
226.348
166.933
1155.53
446.015
221.288
168.309
152.581
150.677
157.744
180.349
183.94
155.556
775.524
289.091
174.144
150.27
144.607
143.5
143.976
150.644
155.776
148.366
457.139
194.38
150.949
143.828
142.622
142.423
142.417
142.747
143.564
143.972
3372.87
4028.55
3893.8
3123.32
2213.75
1467.98
998.657
834.106
721.508
502.98
3816.68
4345.54
4001.34
3056
2099.58
1382.11
972.122
891.57
788.299
516.485
4254.41
4647.86
4068.99
2955.63
1968.41
1296.98
958.847
943.958
843.552
521.182
4436.01
4782.67
4011.22
2803.5
1799.25
1154.03
887.197
925.893
867.594
517.771
4684.63
4873.98
3836.56
2527.02
1538.24
955.001
751.618
859.359
853.544
506.471
5002.52
4998.76
3614.69
2202.25
1262.68
758.601
612.487
773.864
844.773
497.261
5357.28
5146.63
3379.79
1868.9
1006.12
594.682
491.173
683.67
856.583
489.158
5683.83
5263.58
3098.89
1568.63
807.466
484.815
404.707
589.841
829.451
472.793
5630.2
5274.69
2735.89
1284.84
665.694
422.419
367.929
523.941
792.457
451.539
5145.7
4642.38
2203.53
1020.08
558.611
388.217
367.707
526.321
767.82
432.499
4627.01
3696.15
1688.16
815.115
495.104
380.303
391.33
579.257
771.365
413.146
4015.34
2628.05
1247.62
674.69
466.603
390.879
430.276
651.362
769.309
386.315
3229.18
1713.09
921.829
594.099
460.906
411.416
474.789
702.745
720.471
348.884
2668.23
1425.23
807.323
566.82
475.589
437.179
505.824
688.354
627.964
302.981
2392.13
1257.53
734.102
540.477
467.024
441.007
495.606
621.519
513.57
259.529
2138.51
1102.38
648.827
458.515
406.392
401.865
442.464
528.002
432.561
225.508
1838.95
895.174
501.533
332.925
310.739
324.506
350.869
410.155
340.348
194.305
1431.4
605.208
317.227
198.274
200.042
224.763
232.484
281.889
239.158
167.199
856.481
315.372
186.836
154.042
156.794
157.244
155.052
177.997
172.979
152.144
478.715
199.002
152.092
144.072
143.172
142.958
142.843
143.965
144.788
144.627
3832.29
4633.88
4449.23
3598.13
2645.08
1884.2
1454.03
1357.24
1181.37
797.013
4361.55
5043.86
4636.31
3612.65
2616.24
1884.61
1532.56
1524.94
1309.14
822.573
4874.54
5425.83
4769.45
3582.38
2564.19
1879.07
1598.08
1638.87
1392.13
827.768
5133.47
5511.4
4655.63
3408.55
2372.27
1684.07
1444.18
1544.35
1414.16
817.918
5369.4
5528.47
4359.37
3022.11
1996.34
1360.74
1174.94
1381.06
1391.99
798.499
5716.38
5686.68
4108.81
2610.41
1614.77
1051.05
922.194
1204.15
1354.47
775.538
6073.43
5876.3
3878.89
2211.88
1273.64
815.68
725.805
1034.02
1300.53
748.308
6297.41
6036.74
3607.21
1887.13
1041.83
684.229
610.697
889.242
1261.12
723.849
6077.56
6049.2
3245.33
1603.18
909.147
637.869
589.657
820.205
1218.27
697.811
5627.77
5396.02
2690.85
1342.86
824.3
631.137
622.384
862.465
1198
671.894
5172.58
4395.78
2131.75
1139.45
789.378
659.951
690.266
973.252
1226.71
644.595
4642.22
3256.71
1644.76
1008.84
799.192
715.146
782.365
1114.14
1247.52
602.7
3948.61
2251.24
1286.27
958.326
845.366
786.2
886.43
1238.17
1191.13
539.794
3262.89
1856.27
1160.43
972.249
915.971
864.333
975.938
1269.94
1074.91
467.572
2841.81
1632.21
1087.46
967.061
925.414
890.227
987.481
1205.49
939.555
396.285
2489.73
1438.03
1000.35
848.794
814.568
818.56
902.642
1076.36
767.065
323.719
2102
1203.8
816.903
630.101
612.268
641.371
716.848
900.016
586.838
259.98
1534.94
777.5
474.2
334.579
338.67
383.816
440.321
703.966
414.972
209.497
896.103
345.062
210.914
181.11
180.958
179.633
195.712
552.715
289.644
176.167
488.312
201.985
153.383
145.153
143.939
143.616
144.299
643.883
212.795
154.34
4237.95
5350.38
5249.89
4376.38
3413.31
2663.73
2265.5
2186.26
1894.79
1255.67
4814.2
5865.15
5542.19
4497.81
3505.14
2798.03
2480.34
2468.76
2089.12
1287.74
5395.85
6358.15
5726.77
4534.41
3562.4
2909.6
2636.7
2649.94
2192.67
1284.3
5938.28
6618.28
5583.37
4273.97
3326.69
2622.15
2325.68
2451.28
2176.71
1255.09
6327.15
6719.89
5212.01
3725.82
2786.81
2095.3
1860.7
2143.89
2102.85
1215.6
6558.77
6794.82
4892.65
3224.99
2238.39
1598.91
1439.44
1837.16
2036.99
1177.64
6670.19
6881.65
4631.46
2781.56
1779.69
1253.89
1149.31
1573.19
1951.25
1139.12
6606.06
6927.4
4343.5
2423.01
1491.93
1087.27
1011.92
1384.31
1861.97
1100.52
6312.64
6755.53
3968.11
2126.48
1359.67
1060.24
1017.51
1330.4
1829.8
1072.47
5937.93
6083.06
3397.14
1865.86
1303.78
1098.05
1100.74
1425.93
1826.54
1041.87
5574.64
5163.43
2817.1
1664.2
1313.85
1186.31
1232.81
1608.12
1881.32
1002.31
5165.93
4150.63
2296.13
1540.13
1383.77
1312.4
1397.58
1827.18
1919.31
938.61
4647.68
3224.08
1881.67
1502.97
1502.05
1460.98
1576.1
2021.78
1853.56
847.113
4072.81
2693.61
1696.23
1522.32
1635.47
1607.78
1726.84
2089.01
1709.43
742.018
3527.58
2320.86
1570.34
1494.62
1652.51
1654.47
1755.22
1989.51
1455.93
627.332
2934.34
1928.88
1417.69
1337.42
1462.48
1518.72
1609.31
1745.8
1155.64
530.813
2257.93
1432.64
1123.84
1034.6
1074.33
1160.71
1260.73
1372.66
855.72
468.11
1629.33
875.432
651.823
552.951
548.495
639.036
750.88
901.306
548.085
452.667
1214.24
446.39
281.137
230.994
212.744
215.361
248.923
431.172
306.334
510.506
977.363
269.787
165.547
147.796
145.605
145.52
146.106
261.444
180.284
663.573
4424.18
5979.97
6217.4
5464.21
4636.25
3911.52
3489.09
3321.97
2868.05
1903.49
4960.61
6559.92
6643.2
5722.3
4921.7
4223.26
3849.79
3696.69
3123.09
1938.85
5485.16
7125.53
6915.48
5851.91
5102.17
4464.15
4079.21
3873.48
3225.15
1922.15
5993.12
7552.63
6797.13
5484.1
4690.12
4011.65
3600.03
3588.71
3203.77
1877.11
6471.04
7834.57
6533.71
4882.5
3961.86
3248.35
2897.61
3172.39
3111.07
1821.65
6841.02
7998.11
6232.48
4302.36
3250.36
2542.31
2287.45
2747.79
3000.18
1764.05
6971.06
7989.58
5922.95
3788.07
2671.08
2054.19
1888.87
2391.4
2865.71
1707.08
6827.08
7788.04
5586.98
3374.82
2314.21
1828.99
1720.31
2170.68
2761.55
1659.37
6532.19
7378.69
5171.66
3043.53
2157.57
1809.54
1750.3
2139.94
2724.18
1619.24
6196.81
6708.42
4565.21
2761.04
2119.2
1896.88
1892.55
2284.17
2749.35
1572.88
5851.09
5903.61
3965.51
2548.78
2180.96
2063.99
2102.17
2528.19
2797.05
1497.08
5437.44
5038.55
3397.48
2411.63
2318.13
2281.97
2349.48
2802.88
2801.87
1382.37
4885.89
4187.36
2860.13
2345.88
2492.27
2515.12
2599.68
3023.41
2702.15
1232.78
4181.27
3445.09
2512.97
2320.29
2645.57
2716
2786.99
3068.62
2457.44
1052.36
3371.72
2721.92
2219.9
2225.36
2628.95
2746.08
2786.37
2863.25
2066.99
857.934
2603.96
2018.35
1899.5
1974.74
2333.82
2481.86
2516.3
2414.55
1584.43
674.359
1978.16
1374.76
1513.24
1547.63
1767.64
1881.07
1936.64
1779.15
1098.84
523.716
1477.91
814.358
1106.15
950.493
991.306
1029.72
1107.37
1061.32
653.231
414.048
1042.49
426.68
790.808
410.451
325.752
281.33
319.015
414.306
335.43
339.509
615.432
237.489
870.358
244.93
161.22
149.345
149.259
179.466
164.926
266.93
4317.82
6359.2
7273.25
6951.6
6323.9
5782.54
5130.19
4678.02
4006.79
2719.37
4755.68
6951.78
7875.84
7449.33
6824.03
6343.73
5599.23
5075.03
4277.32
2752.34
5141.49
7513.26
8310.11
7736.19
7161.81
6529.94
5848.96
5192.16
4369.68
2727.78
5473.43
7900.56
8207.63
7293.28
6639.04
5940.61
5302.18
4889.58
4360.25
2675.88
5739.84
8138.35
8022.37
6681.14
5811.54
5067.77
4522.99
4474.26
4266.89
2606.59
5907.71
8214.01
7744.72
6019.88
4950.33
4172.55
3746.84
4049.63
4170.13
2536.11
5956.64
8113.57
7391.44
5400.17
4220.31
3487.76
3189.26
3679.03
4044.53
2463.28
5883.3
7809.02
6981.49
4895.26
3758.77
3144.31
2949.04
3423.36
3955.64
2397.54
5701.65
7342.07
6482.2
4491.59
3538.9
3100.55
2985.58
3376.44
3909.73
2323.83
5410.53
6694.66
5854.03
4156.86
3493.34
3232.64
3184.01
3535.22
3912.55
2232.02
5012.06
5935.55
5210.43
3930.35
3605.28
3505.73
3487.37
3813.56
3906.86
2097.77
4509.64
5112.5
4570.86
3783.81
3805.75
3851.51
3832.26
4100.73
3823.36
1915.31
3928.88
4273.48
3946.87
3668.51
3999.96
4187.11
4143.74
4260.45
3599.59
1693.23
3323.98
3477.08
3421.18
3561.63
4107.65
4441.61
4330.97
4139.04
3199.05
1444.24
2742.34
2692.18
2923.04
3352.87
3970.59
4427.63
4222.53
3667.96
2679.25
1206.55
2220.75
1977.96
2394.63
2951.99
3454.87
4016.98
3704.43
2940.75
2116.22
1008
1757.92
1341.28
1836.25
2366.82
2602.99
3283.44
2815.32
2082.73
1655.85
880.99
1334.4
808.724
1260.26
1668.74
1537.21
2490.78
1762.35
1228.81
1352.88
831.221
921.725
409.096
597.436
973.731
531.021
1987.41
782.94
517.008
1360.95
860.586
516.177
218.438
323.231
969.391
262.369
2398.28
449.148
204.521
1727.29
931.457
4018.14
6573.65
8467.37
8879.89
8527.62
7976.12
7166.31
6170.6
5186.24
3638.7
4298.73
7209.41
9321.15
9690.19
9276.8
8672.63
7740.83
6510.71
5416.87
3662.41
4524.87
7750.21
9971.94
10148.2
9698.73
8945.35
7930.64
6559.71
5497.97
3634.89
4702.89
8038.49
9889.22
9739.07
9206.74
8428.86
7466.16
6346.73
5517.21
3582.81
4824.8
8156.93
9627.7
9117.33
8462.66
7690.94
6821.25
6057.01
5467.49
3509.87
4874.31
8072.54
9229.89
8426.85
7663.17
6913.35
6178.53
5770.88
5424.86
3428.32
4841.27
7848.81
8748.06
7763.24
6927.8
6214.57
5623.04
5501.38
5332.4
3328.29
4725.53
7449.22
8230.51
7208.19
6385.83
5725.25
5231.25
5313.87
5252.78
3217.48
4531.24
6986.43
7702.99
6766.89
6053.63
5499.94
5131.92
5264.9
5156.29
3071.53
4262.26
6397.39
7083.44
6391.17
5913.07
5564.09
5301.28
5344.73
5047.68
2887.65
3928.81
5732.61
6448.78
6103.42
6001.84
5900.24
5642.71
5491.17
4877.29
2646.23
3546.91
5027.82
5819.07
5864.01
6160.95
6312.08
6000.98
5551.52
4581.79
2350.54
3140.51
4318.91
5211.4
5617.2
6173.33
6549.04
6195.55
5357.76
4118.16
2020.76
2737.3
3657.2
4691.07
5332.25
5968.85
6467.99
6049.25
4837.75
3494.23
1679.4
2357.8
2952.82
4142.02
4895.4
5427.06
5983.59
5442.56
4022.01
2807.27
1373.45
2015.13
2295.86
3536.63
4214.74
4497.97
5128.76
4492.92
3046.6
2117.88
1118.93
1713.67
1643.86
2884.28
3319.62
3295.53
4088.6
3347.86
2075.56
1557.29
938.861
1452.1
1069.63
2222.63
2245.52
1951.56
3049.94
2142.71
1206.23
1099.94
819.466
1231.63
571.391
1616.06
1099.54
686.43
2219.03
1058.24
554.821
797.918
750.368
1072
291.754
1840.01
565.042
235.616
2147.57
493.816
218.081
521.309
694.992
3535.51
6687.66
9605.77
10825.2
10848.7
10313.3
9278.15
7701.76
6313.76
4569.77
3708.3
7402.52
10649.1
11814.9
11731.1
11079.2
9844.06
7950.49
6450.96
4567.02
3832.98
7960.77
11351.9
12330.5
12207
11421.5
10025.6
7977.93
6500.17
4524.39
3918.52
8210
11280.2
12011.7
11867.8
11141.9
9801.8
7883.53
6530.25
4456.53
3962.75
8277.12
10940.8
11444.5
11290.5
10664.3
9443.36
7726.02
6514.3
4359.03
3957.12
8166.6
10443.6
10779.6
10649.4
10132.8
9058.16
7581.3
6501.77
4233.64
3896.82
7855.95
9917.85
10183
10032.2
9630.57
8678
7396.79
6386.36
4063.29
3781.8
7471.54
9381.39
9639.48
9544.4
9233.73
8382.98
7247.52
6241.31
3853.27
3615.43
7015.97
8809.67
9151
9172.4
8959.86
8199.81
7096.37
6003.37
3585.9
3404.05
6511.21
8223.84
8706.62
8893.57
8823.12
8129.8
6941.67
5695.13
3265.77
3157.66
5964.32
7625.2
8282.36
8696.54
8823.04
8130.87
6714.61
5260.03
2889.81
2889.26
5392.92
7024.34
7842.93
8444.18
8744.7
8011.79
6306.62
4685.17
2475.93
2613.61
4809.47
6427.11
7344.47
7985.3
8349.19
7573.81
5641.32
3995.24
2053.56
2344.37
4191.13
5796.85
6727.23
7281.17
7605.15
6773.22
4730.23
3215.85
1652.74
2091.79
3529.48
5114.07
5935.31
6286.96
6538.44
5665.21
3695.98
2472.79
1313.76
1862.16
2782.54
4321.79
4938
4986.19
5227.25
4362.95
2626.36
1799.85
1046.52
1657.29
2059.79
3358.07
3682.57
3514.78
3820.2
3042.39
1702.63
1350.93
862.177
1474.57
1364.05
2271.22
2296.67
2009.95
2450.14
1818.61
946.142
1074.32
731.314
1307.53
718.089
1150.09
955.72
698.678
1273.37
840.199
451.875
1035.02
629.08
1153.57
325.298
568.737
310.617
197.584
615.519
303.787
193.19
1195.31
501.865
2994.67
6521.38
10296.3
12278.2
12806.6
12332.9
11043.2
9042.52
7277.44
5387.63
3096.3
7203.14
11347.1
13252.9
13658.3
12996.3
11444.1
9148.49
7299.24
5322.15
3160.93
7695.5
11947.4
13721
14024.5
13283.2
11563.2
9121.87
7260.05
5215.86
3195.78
7944.66
11953.2
13552.5
13866.9
13213
11537.2
9042.71
7185.59
5072.09
3201.54
8039.4
11693.8
13148.3
13515.7
12987.8
11394.9
8916.41
7065.88
4885.62
3174.83
7976.13
11274.3
12618.7
13068.9
12709.8
11239.9
8783.01
6904.74
4651.97
3113.19
7738.66
10776.1
12055.6
12549.5
12321.6
10940
8563.59
6659.42
4362.16
3017.44
7409.86
10253.9
11501
12041.2
11916.1
10614.4
8302.27
6344.69
4018.01
2890.23
7019.2
9700.78
10947.1
11535.9
11463.1
10204.2
7909.18
5909.36
3616.08
2736.35
6583.95
9132.61
10391.9
11025.5
10997.3
9759.57
7412.3
5369.83
3169.83
2562.79
6101.7
8537.88
9799.02
10476.8
10493.1
9222.36
6760.55
4706.84
2694.22
2377.81
5574.91
7916.99
9142.64
9808.94
9816.16
8484.23
5930.34
3956.3
2218.89
2189.74
4999.7
7266.39
8394.09
8949.59
8847.58
7472.42
4945.66
3183.82
1776.35
2005.61
4353.19
6560.79
7506.09
7885.27
7605.26
6200.02
3865.61
2443.25
1392.77
1829.89
3627.25
5803.54
6462.89
6644.08
6203.89
4833.2
2861.41
1828.72
1088.28
1664.15
2838.7
4984.19
5249.81
5294.11
4723.17
3442.49
1980.39
1352.26
858.78
1507.24
2083.8
4172.69
3925.57
4044.27
3377.96
2280.04
1359.02
1050.53
693.402
1353.79
1375.08
3510.73
2611.97
3063.32
2191.79
1308.4
972.591
870.015
562.175
1196.45
742.256
3246.17
1431.4
2588.51
1266.54
658.782
876.682
773.752
440.754
1031.23
323.3
3943.89
704.974
3019.04
653.744
267.295
1038.41
657.608
306.6
2456.99
5903.78
10039.1
12581.5
13586.1
13331.7
12039.9
9974.89
7984.54
5976.77
2509.92
6400.93
10830.8
13264.7
14125.8
13695.3
12192.6
9943.29
7877.35
5810.59
2538.06
6749.48
11286.3
13589.1
14342.2
13816.5
12195.9
9822.62
7707.97
5595.66
2545.32
7013.11
11513.6
13686.7
14396
13831
12126.2
9641.29
7480.85
5331
2532.62
7149.74
11458.2
13544.4
14270.2
13733.1
11977.3
9393.67
7187.82
5013.94
2499.58
7200.96
11251.2
13291.8
14089
13611.2
11787.3
9077.44
6821.2
4643.22
2445.15
7042.03
10864.4
12814.6
13650.6
13279.7
11448.2
8652.76
6366.53
4220.24
2370.39
6778.55
10399.3
12289.2
13116.7
12851.1
11021.1
8125.34
5826.71
3753.65
2277.08
6440.88
9851.53
11662.9
12462.6
12145.1
10368.2
7452.96
5196.54
3255.18
2168.25
6044.43
9254.46
10965.8
11703.4
11325.8
9556.02
6658.76
4499.38
2746.33
2047.94
5587.62
8601.15
10161
10803.3
10350.2
8525.18
5737.17
3758.68
2250.54
1920.67
5066.89
7881.77
9244.1
9752.89
9185.19
7301.06
4736.33
3022.79