/*--------------------------------*- C++ -*----------------------------------*\
  =========                 |
  \\      /  F ield         | OpenFOAM: The Open Source CFD Toolbox
   \\    /   O peration     | Website:  https://openfoam.org
    \\  /    A nd           | Version:  7
     \\/     M anipulation  |
\*---------------------------------------------------------------------------*/
FoamFile
{
    version     2.0;
    format      ascii;
    class       volScalarField;
    location    "1";
    object      ILambda_0_0;
}
// * * * * * * * * * * * * * * * * * * * * * * * * * * * * * * * * * * * * * //

dimensions      [1 0 -3 0 0 0 0];

internalField   nonuniform List<scalar> 
4000
(
223.436
173.929
157.846
144.5
142.642
142.4
142.378
142.391
142.41
142.425
487.266
415.852
229.188
155.439
144.301
142.709
142.504
142.485
142.496
142.496
770.784
638.839
322.719
174.909
148.014
143.706
142.812
142.613
142.576
142.55
942.28
753.475
407.126
198.834
153.844
145.439
143.268
142.764
142.65
142.59
974.386
820.467
468.864
222.663
161.966
147.619
143.855
142.945
142.723
142.622
920.084
849.44
508.624
244.641
171.202
150.158
144.571
143.161
142.8
142.65
875.086
857.528
528.6
262.775
179.592
152.818
145.384
143.413
142.882
142.675
839.214
846.51
537.66
279.645
186.94
155.463
146.259
143.694
142.973
142.702
786.928
827.203
543.695
293.295
193.173
157.988
147.154
143.996
143.07
142.73
752.743
811.712
558.318
303.795
198.402
160.31
148.033
144.307
143.174
142.761
731.012
798.96
565.964
311.503
202.755
162.366
148.865
144.615
143.281
142.795
718.116
787.777
556.543
315.313
206.17
164.108
149.625
144.91
143.388
142.831
739.166
788.799
547.862
314.505
208.498
165.513
150.292
145.182
143.491
142.869
759.677
803.602
546.508
309.705
209.581
166.574
150.85
145.424
143.589
142.909
783.101
820.586
554.341
306.202
209.707
167.335
151.302
145.631
143.678
142.949
872.827
849.854
566.65
304.067
208.353
167.714
151.635
145.801
143.756
142.987
1007.34
896.66
581.635
304.273
206.262
167.678
151.833
145.93
143.821
143.024
1102.52
989.345
593.833
305.661
204.81
167.136
151.858
146.006
143.87
143.057
1048.05
1010.08
585.786
305.346
203.759
166.342
151.673
146.001
143.892
143.084
801.179
803.776
523.908
296.835
201.943
165.543
151.388
145.916
143.865
143.091
225.454
162.062
148.463
143.637
142.58
142.386
142.356
142.355
142.36
142.364
380.784
279.316
184.242
151.662
144.168
142.697
142.441
142.399
142.398
142.4
760.18
706.455
285.744
174.598
149.05
143.775
142.713
142.492
142.453
142.442
1362.95
1354.32
457.796
217.389
159.138
146.208
143.31
142.665
142.528
142.488
1835.29
1762.75
636.783
273.696
174.858
150.336
144.369
142.956
142.63
142.538
1991.28
1959.06
785.316
334.196
195.005
156.199
145.98
143.404
142.772
142.595
1952.39
2057.86
896
391.52
217.357
163.486
148.153
144.033
142.964
142.662
1897.81
1976.99
956.52
439.936
239.67
171.679
150.82
144.851
143.215
142.744
1823.11
1805.96
973.472
476.279
260.096
180.175
153.846
145.84
143.528
142.844
1731.68
1676.74
970.781
501.634
277.659
188.447
157.067
146.967
143.9
142.964
1668.46
1583.1
958.419
517.913
291.993
196.081
160.318
148.185
144.323
143.104
1661.14
1524.45
940.392
526.613
303.052
202.794
163.45
149.442
144.782
143.262
1689.45
1596.21
936.832
531.368
311.272
208.478
166.348
150.688
145.263
143.435
1733.79
1785.37
960.688
536.418
317.425
213.155
168.94
151.879
145.749
143.619
1895.58
1954.32
1001.61
544.234
322.374
216.969
171.199
152.984
146.225
143.808
2152.09
2193.94
1062.68
556.8
326.842
220.081
173.126
153.981
146.678
143.997
2265.48
2454.69
1138.1
574.832
331.586
222.678
174.744
154.86
147.098
144.182
2037.23
2341.83
1171.36
591.005
336.416
224.828
176.065
155.612
147.476
144.357
1662.92
1973.1
1140.89
597.208
340.077
226.494
177.08
156.224
147.802
144.518
1325.67
1617.23
1060.19
588.58
340.862
227.478
177.789
156.687
148.065
144.656
238.642
159.542
145.995
143.116
142.498
142.372
142.35
142.349
142.349
142.349
337.401
210.475
163.148
147.688
143.56
142.606
142.419
142.382
142.368
142.365
501.642
366.641
217.853
163.011
147.366
143.511
142.669
142.458
142.403
142.39
836.769
762.673
345.172
199.287
156.865
145.924
143.29
142.627
142.465
142.424
1670.87
1608.53
583.881
266.743
175.399
150.895
144.58
142.971
142.573
142.471
2300.02
2398.7
890.096
363.999
204.656
159.269
146.871
143.595
142.757
142.539
2565.03
2951.25
1178.28
477.047
243.366
171.374
150.425
144.606
143.052
142.636
2657.91
3152.25
1392.73
588.38
287.843
186.836
155.339
146.085
143.492
142.774
2653.55
2913.67
1496.39
681.351
333.231
204.616
161.508
148.068
144.105
142.966
2601.05
2650.95
1526.78
750.735
375.372
223.372
168.65
150.531
144.906
143.221
2553.14
2455.94
1517.61
797.452
411.657
241.851
176.379
153.398
145.891
143.546
2549.65
2392.33
1499.71
826.502
441.071
259.056
184.287
156.554
147.039
143.94
2601.01
2702.32
1533.88
850.551
464.734
274.432
192.012
159.868
148.318
144.4
2707.65
3102.33
1623.48
878.892
484.914
287.944
199.306
163.213
149.685
144.915
2939.7
3435.01
1738.91
913.968
503.463
299.867
206.04
166.483
151.096
145.472
3083.78
3597.08
1831.65
951.296
521.19
310.5
212.176
169.605
152.51
146.057
2687.4
3315.96
1865.28
983.532
537.808
320.011
217.713
172.525
153.892
146.655
2288.61
2952.4
1844.9
1005.02
552.331
328.448
222.649
175.21
155.213
147.25
1934.16
2584.86
1776.23
1011.04
563.214
335.634
226.951
177.628
156.449
147.829
1623.43
2228.65
1667.15
998.526
568.679
341.158
230.571
179.743
157.575
148.378
250.003
160.444
145.557
142.941
142.456
142.364
142.347
142.351
142.353
142.808
345.834
196.153
156.195
145.761
143.142
142.525
142.406
142.413
142.388
142.655
451.239
268.245
184.86
154.803
145.635
143.169
142.625
142.523
142.428
142.568
608.087
425.902
252.813
177.734
152.399
145.05
143.229
142.708
142.493
142.529
940.256
796.32
400.05
227.065
167.428
149.425
144.516
143.071
142.607
142.53
1733.56
1695.09
687.42
318.528
195.751
157.96
146.998
143.771
142.815
142.573
2430.6
2723.91
1096.7
456.761
240.888
172.129
151.261
145.013
143.18
142.671
2882.55
3542.23
1510.09
624.708
301.993
192.751
157.839
147.012
143.777
142.843
3093.02
3582.54
1786.23
789.212
373.041
219.304
166.954
149.942
144.685
143.117
3146.3
3379.35
1934.89
929.695
446.701
250.217
178.464
153.889
145.967
143.518
3169.29
3208.81
2005.11
1039.12
516.325
283.3
191.92
158.831
147.66
144.071
3251.92
3273.28
2061.87
1122.7
578.131
316.433
206.662
164.641
149.766
144.79
3393.44
3858.69
2199.39
1199.67
632.957
348.275
221.993
171.115
152.251
145.681
3521.5
4282.25
2367.42
1277.3
682.638
378.17
237.341
178.022
155.055
146.736
3524.31
4389.15
2489.67
1350.56
728.11
405.904
252.306
185.139
158.101
147.937
3119.03
4060.66
2539.5
1412.18
769.196
431.305
266.575
192.267
161.303
149.258
2727.11
3700.7
2530.19
1457.49
805.12
454.33
279.934
199.241
164.577
150.668
2373.16
3340.71
2471.97
1483.54
834.748
474.801
292.196
205.916
167.846
152.133
2060.23
2986.68
2372.56
1488.38
856.738
492.377
303.271
212.159
171.038
153.62
1785.67
2644.24
2239.31
1471.04
869.706
506.543
313.004
217.864
174.068
155.092
272.575
163.629
145.879
142.944
142.447
142.36
142.345
142.347
142.373
144.823
380.67
199.544
155.281
145.207
142.969
142.482
142.393
142.441
142.506
144.047
477.737
251.554
174.617
151.246
144.664
142.935
142.562
142.666
142.625
143.539
583.403
334.347
213.233
165.373
149.145
144.269
143.114
143.014
142.76
143.225
742.002
492.667
292.132
195.956
159.45
147.551
144.36
143.52
142.94
143.047
1078.56
858.933
456.395
257.861
180.663
154.536
146.754
144.338
143.213
142.978
1889.31
1810.06
786.325
372.268
219.556
167.511
151.061
145.74
143.661
143.015
2640.08
3020.69
1277.57
548.577
281.662
188.686
158.107
148.046
144.391
143.174
3159.15
3720.43
1735.82
758.667
365.156
219.283
168.695
151.616
145.539
143.488
3382.48
3695.4
2040.32
964.714
462.572
258.87
183.253
156.726
147.239
144.004
3529.91
3660.44
2245.78
1147.96
564.621
305.063
201.676
163.534
149.604
144.771
3761.62
4138.21
2470.76
1313.29
665.167
355.053
223.377
172.034
152.707
145.831
3949.41
4750.12
2735.94
1471.15
762.416
406.896
247.53
182.067
156.567
147.218
3966.47
4918.14
2937.55
1615.42
854.486
458.828
273.239
193.39
161.152
148.947
3539.13
4614.41
3046.38
1738.18
939.616
509.266
299.572
205.667
166.379
151.012
3118.69
4272.92
3081.17
1834.91
1015.89
557.08
325.787
218.546
172.133
153.388
2745.84
3923.63
3054.98
1903.34
1081.67
601.378
351.203
231.654
178.272
156.034
2419.82
3576.48
2979.26
1942.86
1135.52
641.335
375.328
244.618
184.64
158.893
2136.97
3237.82
2863.8
1953.91
1176.28
676.166
397.785
257.144
191.081
161.911
1891.22
2912.1
2717.07
1937.66
1203.06
705.112
418.113
269.036
197.351
164.984
302.778
168.338
146.574
143.037
142.457
142.361
142.345
142.345
142.384
154.826
433.146
210.246
156.934
145.361
142.957
142.471
142.391
142.447
142.724
150.896
541.808
263.076
174.89
150.581
144.352
142.837
142.541
142.75
143.157
148.29
641.796
328.713
203.768
160.921
147.646
143.846
143.076
143.514
143.663
146.627
754.869
421.437
252.346
180.92
154.753
146.291
144.386
144.611
144.213
145.585
927.558
587.376
342.593
219.687
169.361
151.613
146.912
146.013
144.849
144.974
1351.69
1002.1
530.761
295.191
197.517
162.073
151.084
147.909
145.653
144.692
2202.83
2159.96
939.609
437.597
248.425
180.276
157.755
150.621
146.724
144.681
2954.59
3295.42
1458.75
644.825
327.359
209.284
168.27
154.577
148.216
144.936
3398.89
3572.86
1876.65
878.813
430.922
250.632
183.826
160.266
150.344
145.496
3715.3
3783.69
2217.41
1114.41
551.119
303.302
204.862
168.21
153.283
146.414
4054.41
4570.56
2608
1353.44
681.707
365.189
231.246
178.721
157.207
147.757
4221.95
5092.95
2980.97
1590.35
817.977
434.288
262.61
191.799
162.279
149.603
3921.36
4916.44
3215.94
1804.57
953.833
507.993
298.136
207.287
168.56
152.009
3502.22
4641.64
3352.65
1986.84
1083.68
583.115
336.45
224.862
176.019
155.001
3115.4
4336.86
3407.14
2131.99
1202.71
657.282
376.153
244.038
184.571
158.59
2771.07
4017.98
3393.75
2238.15
1307.45
728.297
416.227
264.197
194.031
162.74
2471.07
3696.59
3325.63
2305.77
1395.31
794.172
455.75
284.779
204.122
167.362
2212.32
3381.02
3214.44
2336.71
1464.63
853.195
493.787
305.59
214.611
172.418
1988.2
3076.66
3070.22
2333.72
1514.49
903.955
529.322
326.168
225.166
177.661
338.943
174.178
147.503
143.181
142.479
142.364
142.346
142.345
142.388
145.404
500.171
225.25
159.891
145.885
143.042
142.487
142.401
142.48
143.004
146.762
633.706
287.406
180.076
151.477
144.473
142.869
142.592
142.949
144.201
147.133
749.379
357.241
208.748
161.263
147.488
143.869
143.316
144.49
145.985
147.226
862.798
437.986
249.032
177.779
153.548
146.177
145.108
147.143
148.01
147.277
997.497
545.34
309.549
205.359
164.524
150.784
148.569
150.405
150.111
147.379
1224.92
742.875
417.562
254.199
184.542
159.291
153.418
154.078
152.324
147.642
1891.59
1383.18
671.548
351.261
221.556
173.868
160.045
158.007
154.587
148.072
2749.72
2624.29
1152.43
524.105
285.953
198.009
169.53
162.851
157.171
148.722
3353.87
3238.96
1610.07
747.784
380.387
235.375
183.896
169.239
160.165
149.649
3810.39
3738.87
2044.87
1001.03
501.185
287.045
204.63
177.844
163.875
150.937
4220.97
4608.55
2549.7
1282.96
644.481
352.725
232.61
189.283
168.615
152.697
4257.78
4822.9
2946.33
1567.95
804.112
431.496
268.241
204.043
174.569
155.046
3883.99
4705.41
3228.51
1835.09
971.922
520.377
310.617
222.45
182.123
158.12
3505.23
4512.98
3413.03
2071.01
1139.2
615.545
358.284
243.928
191.256
161.992
3152.99
4274.34
3511.2
2266.9
1298.44
713.528
409.447
267.915
201.943
166.753
2836.53
4008.09
3535.25
2418.52
1443.32
810.864
463.248
293.683
213.886
172.345
2559.09
3729.02
3498.31
2525.51
1569.61
904.362
518.481
321.083
226.696
178.651
2317.58
3447.92
3412.51
2589.37
1674.22
991.097
573.678
350.257
240.441
185.695
2106.56
3172.09
3288.81
2613.08
1755.32
1068.58
627.109
380.463
255.089
193.096
379.166
180.827
148.598
143.36
142.508
142.37
142.348
142.35
142.476
143.544
580.913
243.629
163.76
146.662
143.205
142.553
142.447
142.649
144.015
145.244
757.508
321.219
188.387
153.368
144.953
143.225
142.913
143.825
147.279
146.746
907.844
407.217
222.73
165
149.062
145.525
144.849
147.978
152.52
148.4
1042.83
498.73
266.705
183.335
156.551
149.443
149.01
155.099
158.474
150.115
1183.28
600.429
322.504
209.039
167.386
154.64
155.61
163.917
165.345
152.113
1366.71
737.128
400.376
246.817
183.297
162.074
162.765
172.644
172.449
154.342
1830.7
1072.53
556.435
312.876
210.488
173.471
169.395
180.652
179.215
156.705
2709.9
2159.43
951.729
446.798
259.845
192.356
177.109
188.099
184.317
158.869
3417.73
2990.76
1399.18
641.936
338.747
223.353
188.36
194.123
188.812
161.043
3972.05
3706.94
1877.24
886.671
448.649
269.296
206.283
202.274
193.594
163.351
4407.05
4511.22
2419.98
1177.9
589.197
331.879
233.296
215.276
199.66
166.032
4303.47
4582.25
2821.33
1480.38
755.009
411.819
270.273
231.555
207.803
169.511
3956.6
4512.75
3126.99
1774.48
937.504
507.186
316.947
251.577
216.68
173.646
3607.41
4375.85
3345.63
2044.09
1127.76
614.516
370.779
274.975
226.426
178.487
3281.26
4191.06
3482.15
2277.85
1315.72
729.678
429.389
300.383
236.973
184.069
2988.36
3973.84
3545.07
2468.09
1492.34
847.479
492.465
327.409
248.751
190.585
2727.35
3736.97
3544.77
2612.91
1651.84
963.671
559.334
356.862
260.835
197.777
2488.61
3490.76
3492.55
2712.71
1790.25
1075.39
628.922
390.602
274.242
205.821
2274.42
3243.12
3398.55
2769.25
1904.27
1179.15
699.01
427.946
289.756
214.248
421.223
187.924
149.798
143.572
142.546
142.379
142.361
142.397
143.12
143.529
677.998
265.539
168.582
147.889
143.532
142.673
142.745
143.632
148.992
146.217
936.319
368.86
200.759
157.131
146.254
143.9
145.202
149.658
158.806
149.398
1142.74
487.71
250.832
177.405
155.904
150.895
153.58
164.214
173.976
153.819
1311.25
606.091
309.6
205.079
170.966
160.907
165.807
184.708
191.711
159.475
1471.51
722.88
372.542
236.163
187.074
170.167
179.049
206.87
210.922
165.688
1661.76
854.734
447.275
273.252
202.494
178.227
190.821
229.131
233.211
173.212
2088.56
1106.47
566.566
325.265
224.329
187.139
198.233
246.426
253.553
181.148
2951.2
2017.52
895.478
433.948
262.268
200.969
200.415
253.238
260.838
187.398
3671.62
2945.34
1318.26
601.428
326.284
224.948
205.272
250.851
265.43
192.463
4256.07
3775.78
1805.42
827.806
421.809
263.223
217.469
252.778
269.692
196.778
4716.14
4483.51
2342.55
1110.54
551.891
319.226
240.978
268.78
276.646
201.071
4594.38
4543.66
2740.34
1409.81
713.271
395.422
280.494
294.068
293.999
207.149
4237.79
4483.66
3051.92
1710.49
898.092
491.633
331.705
321.172
308.339
213.936
3884.93
4366.5
3284.89
1994.99
1099.82
605.416
390.894
346.952
317.597
220.467
3565.23
4210.69
3446.25
2251.18
1304.77
731.467
455.787
372.343
325.814
227.36
3288.85
4026.13
3537.71
2466.74
1500.25
861.583
523.973
395.654
332.782
234.041
3045.95
3816.62
3562.2
2634.98
1678.83
989.956
594.053
417.754
337.067
240.476
2782.45
3590.45
3535.18
2760.51
1840.06
1117.81
669.394
444.764
341.853
247.196
2532.69
3356.9
3465.54
2843.83
1979.49
1241.08
749.233
479.881
348.179
253.447
457.113
194.376
150.948
143.828
142.622
142.423
142.417
142.747
143.565
143.972
775.499
289.082
174.141
150.269
144.607
143.501
143.976
150.643
155.778
148.366
1155.48
446
221.278
168.307
152.581
150.671
157.744
180.355
183.944
155.556
1466.99
632.707
311.502
221.541
188.789
183.084
193.592
227.32
226.361
166.935
1683.08
800.694
407.076
276.782
228.852
214.359
230.886
283.03
278.885
183.169
1871.19
936.239
486.381
322.986
259.437
234.228
261.292
337.266
330.516
200.76
2090.24
1082.48
568.347
357.231
274.56
241.153
278.884
377.254
365.874
217.614
2550.69
1330.94
681.364
404.082
286.604
242.792
277.048
399.834
396.49
234.128
3396.69
2202.02
990.559
497.714
313.801
247.604
264.893
391.183
438.629
254.376
4083.17
3154.94
1398.14
646.255
363.5
260.931
256.05
363.817
455.488
269.689
4652.76
4025.19
1882.92
856.097
444.465
288.76
256.836
346.901
464.97
281.681
5135.31
4706.28
2414.13
1126.68
562.9
336.502
272.892
362.002
482.017
293.523
5058.08
4748.82
2800.47
1419.42
714.924
407.168
313.49
405.671
480.448
299.501
4704
4678.07
3106.82
1716.08
901.482
504.967
378.797
454.85
488.685
306.005
4342.43
4557.65
3343.66
2015.18
1117.88
631.165
455.848
504.163
510.44
315.234
4025.58
4426.65
3527.57
2294.57
1343.76
776.139
537.779
542.473
524.604
325.532
3781.78
4275.6
3642.99
2534.22
1557.3
923.125
617.296
566.461
524.263
332.802
3548.87
4082.58
3672.42
2703.66
1734.25
1047.72
679.388
574.957
511.315
336.99
3222.21
3842.28
3649
2831.34
1896.63
1172.32
741.173
573.14
489.66
338.365
2897.85
3591.54
3584.27
2921.57
2042.85
1298.22
813.94
582.36
469.427
336.846
478.699
198.999
152.092
144.072
143.171
142.958
142.844
143.964
144.788
144.627
856.497
315.379
186.827
154.034
156.794
157.26
155.062
178.01
172.989
152.146
1431.41
605.269
317.201
198.217
199.758
225.2
232.59
281.96
239.198
167.206
1838.86
895.15
501.459
332.806
310.418
324.903
351.016
410.269
340.427
194.325
2138.35
1102.32
648.756
458.395
406.125
402.114
442.592
528.114
432.673
225.539
2391.94
1257.46
734.05
540.381
466.831
441.14
495.713
621.61
513.706
259.57
2668.03
1425.14
807.266
566.746
475.46
437.241
505.903
688.395
628.108
303.035
3228.87
1713
921.778
594.034
460.812
411.436
474.828
702.708
720.601
348.948
4015.43
2628.1
1247.67
674.659
466.536
390.876
430.289
651.273
769.373
386.367
4627.23
3696.44
1688.32
815.126
495.065
380.294
391.334
579.188
771.393
413.184
5145.89
4642.56
2203.67
1020.13
558.6
388.212
367.71
526.277
767.833
432.522
5630.13
5274.8
2735.97
1284.9
665.704
422.422
367.941
523.973
792.477
451.554
5683.95
5263.68
3098.99
1568.73
807.517
484.857
404.758
589.953
829.448
472.795
5357.4
5146.72
3379.9
1869
1006.18
594.733
491.221
683.787
856.549
489.148
5002.62
4998.82
3614.77
2202.34
1262.74
758.661
612.546
773.975
844.736
497.262
4684.75
4874.03
3836.63
2527.12
1538.34
955.02
751.663
859.429
853.492
506.468
4436.15
4782.75
4011.31
2803.62
1799.41
1153.86
887.151
925.879
867.525
517.763
4254.49
4647.85
4069.08
2955.76
1968.78
1296.43
958.679
943.862
843.464
521.163
3816.69
4345.51
4001.39
3056.08
2099.78
1381.7
971.883
891.412
788.184
516.444
3372.88
4028.51
3893.83
3123.38
2213.87
1467.71
998.428
833.94
721.386
502.923
488.315
201.985
153.382
145.15
143.939
143.616
144.298
643.577
212.757
154.336
896.157
345.068
210.885
181.057
180.938
179.63
195.706
552.527
289.621
176.162
1535.06
777.565
474.133
334.377
338.455
383.694
440.379
703.989
415.029
209.505
2101.98
1203.77
816.773
629.791
611.888
641.291
716.956
900.131
587.017
260.017
2489.66
1437.97
1000.21
848.467
814.175
818.522
902.713
1076.48
767.31
323.792
2841.69
1632.13
1087.33
966.801
925.109
890.188
987.485
1205.54
939.892
396.396
3262.67
1856.17
1160.31
972.04
915.728
864.272
975.891
1269.89
1075.27
467.707
3948.25
2251.09
1286.16
958.144
845.148
786.132
886.353
1237.96
1191.43
539.941
4642.1
3256.67
1644.81
1008.74
799.003
715.07
782.295
1113.88
1247.66
602.828
5172.46
4395.96
2131.94
1139.43
789.236
659.876
690.208
973.048
1226.77
644.695
5627.82
5396.04
2690.91
1342.86
824.217
631.082
622.341
862.329
1198.03
671.962
6077.5
6049.16
3245.28
1603.17
909.116
637.834
589.638
820.217
1218.32
697.859
6297.54
6036.77
3607.2
1887.17
1041.87
684.245
610.761
889.453
1261.11
723.875
6073.64
5876.37
3878.93
2211.95
1273.68
815.732
725.928
1034.29
1300.44
748.308
5716.57
5686.77
4108.88
2610.5
1614.82
1051.13
922.39
1204.44
1354.32
775.521
5369.57
5528.58
4359.48
3022.29
1996.47
1360.82
1175.12
1381.28
1391.83
798.461
5133.69
5511.58
4655.79
3408.83
2372.53
1684.14
1444.25
1544.45
1413.96
817.873
4874.6
5425.92
4769.63
3582.74
2564.58
1879.23
1598.04
1638.79
1391.91
827.704
4361.55
5043.9
4636.45
3612.93
2616.55
1884.61
1532.45
1524.81
1308.92
822.49
3832.28
4633.9
4449.33
3598.33
2645.32
1884.15
1453.89
1357.09
1181.17
796.914
977.505
269.803
165.539
147.789
145.607
145.524
146.108
261.374
180.27
663.813
1214.38
446.382
280.992
230.789
212.748
215.445
249.004
431.099
306.367
510.666
1629.53
875.483
651.601
552.446
548.13
639.002
751.012
901.387
548.297
452.802
2258.18
1432.72
1123.66
1033.97
1073.69
1160.43
1260.77
1372.79
856.127
468.272
2934.52
1928.93
1417.43
1336.76
1461.68
1518.28
1609.12
1745.77
1156.16
531.008
3527.62
2320.84
1570.1
1493.83
1651.35
1653.76
1754.74
1989.25
1456.45
627.564
4072.68
2693.53
1696.04
1521.48
1634.2
1606.98
1726.18
2088.46
1709.86
742.274
4647.49
3223.92
1881.54
1502.37
1501.09
1460.22
1575.4
2020.94
1853.85
847.355
5165.79
4150.5
2296.28
1539.71
1383.17
1311.77
1396.95
1826.28
1919.36
938.804
5574.46
5163.4
2817.39
1663.99
1313.42
1185.83
1232.33
1607.41
1881.26
1002.45
5937.89
6083.01
3397.18
1865.71
1303.45
1097.69
1100.38
1425.42
1826.45
1041.96
6312.6
6755.47
3967.88
2126.39
1359.33
1060.01
1017.32
1330.27
1829.78
1072.53
6606.09
6927.42
4343.32
2422.96
1491.76
1087.22
1011.98
1384.64
1861.94
1100.55
6670.36
6881.74
4631.37
2781.8
1779.99
1254.08
1149.64
1573.79
1951.21
1139.12
6558.96
6794.95
4892.68
3225.47
2239.17
1599.45
1440.07
1837.92
2036.91
1177.63
6327.27
6720.03
5212.18
3726.34
2787.62
2095.93
1861.41
2144.64
2102.66
1215.56
5938.29
6618.39
5583.54
4274.6
3327.58
2622.85
2326.3
2451.84
2176.43
1255.02
5395.79
6358.21
5727.05
4535.21
3563.41
2910.22
2637.09
2650.22
2192.31
1284.2
4814.13
5865.22
5542.52
4498.57
3505.88
2798.41
2480.53
2468.92
2088.8
1287.61
4237.89
5350.43
5250.13
4376.94
3413.89
2664.02
2265.6
2186.32
1894.54
1255.52
615.486
237.498
868.849
244.735
161.199
149.346
149.258
179.457
164.925
266.984
1042.59
426.655
789.516
410.058
325.738
281.416
319.061
414.449
335.439
339.571
1478.01
814.316
1105.13
949.767
990.905
1029.59
1107.42
1061.82
653.269
414.133
1978.31
1374.83
1512.56
1546.75
1766.83
1880.57
1936.47
1779.49
1099.23
523.863
2604.18
2018.53
1898.95
1973.74
2332.48
2480.89
2515.62
2414.51
1584.91
674.584
3371.97
2722.14
2219.44
2224.53
2627.53
2744.61
2785.12
2862.61
2067.48
858.222
4181.38
3445.19
2512.59
2319.64
2644.14
2714.31
2785.37
3067.41
2457.86
1052.68
4885.88
4187.35
2859.97
2345.22
2490.64
2513.54
2598.07
3021.81
2702.29
1233.07
5437.36
5038.47
3397.76
2411.61
2316.32
2280.58
2348.12
2801.26
2801.72
1382.59
5850.94
5903.49
3965.98
2548.86
2179.68
2062.81
2101.02
2526.8
2796.71
1497.21
6196.77
6708.37
4565.27
2760.99
2118.34
1895.94
1891.62
2283.07
2749
1572.92
6532.2
7378.68
5171.29
3042.96
2157.49
1808.87
1749.57
2139.33
2723.91
1619.24
6827.12
7788.08
5586.6
3374.5
2314.51
1828.72
1720.05
2170.76
2761.37
1659.35
6971.14
7989.68
5922.77
3787.77
2671.46
2054.51
1889.26
2392.12
2865.52
1707.02
6841.03
7998.13
6232.47
4302.26
3250.99
2543.25
2288.54
2748.99
3000.08
1764
6470.98
7834.51
6533.81
4882.78
3963.01
3249.64
2899.05
3173.69
3111.02
1821.59
5993.06
7552.54
6797.23
5484.63
4691.44
4013.07
3601.44
3589.86
3203.62
1877.05
5485.1
7125.54
6915.73
5852.69
5103.55
4465.51
4080.37
3874.06
3225.13
1922.08
4960.53
6559.97
6643.72
5723.07
4922.78
4224.28
3850.69
3697.06
3123.08
1938.79
4424.09
5979.99
6217.8
5464.86
4637.14
3912.34
3489.78
3322.3
2868.02
1903.41
516.206
218.441
322.885
969.77
262.426
2404.7
450.003
204.642
1735.4
933.193
921.783
409.018
596.607
973.631
531.21
1992.12
784.32
517.404
1366.27
862.408
1334.46
808.442
1259.22
1668.11
1537.05
2493.72
1763.78
1229.55
1356.44
832.885
1757.98
1341.03
1835.34
2365.9
2602.33
3284.88
2816.22
2083.51
1658.49
882.438
2220.83
1977.81
2393.92
2950.88
3453.6
4016.99
3704.44
2941.1
2118.11
1009.23
2742.44
2692.25
2922.52
3351.95
3968.4
4426.08
4221.22
3667.54
2680.55
1207.6
3324.07
3477.14
3420.77
3560.05
4104.86
4438.97
4328.59
4137.75
3199.82
1445.1
3928.95
4273.52
3946.67
3667.96
3997.44
4183.96
4140.99
4258.39
3599.77
1693.88
4509.7
5112.48
4570.96
3784.74
3802.87
3848.46
3829.63
4098.36
3823.07
1915.75
5012.09
5935.49
5210.71
3931.14
3603.18
3503.18
3485.06
3811.36
3906.25
2098
5410.51
6694.64
5854.11
4157.22
3491.92
3230.66
3182.08
3533.37
3911.88
2232.07
5701.6
7342.08
6481.98
4490.39
3538.8
3099.46
2984.21
3375.27
3909.14
2323.77
5883.27
7809.04
6981.19
4893.76
3758.89
3144.35
2948.56
3423.09
3955.27
2397.43
5956.64
8113.62
7391.22
5399.92
4221.3
3488.89
3190.04
3679.56
4044.3
2463.16
5907.72
8213.96
7744.56
6019.65
4952.05
4174.7
3748.73
4050.86
4170.12
2536.04
5739.85
8138.34
8022.27
6681.26
5813.32
5070.19
4525.28
4475.79
4267.05
2606.55
5473.44
7900.63
8207.67
7293.7
6640.82
5942.99
5304.48
4891.04
4360.36
2675.9
5141.48
7513.54
8310.48
7736.94
7163.47
6532
5850.81
5193.29
4369.84
2727.79
4755.63
6952.04
7876.52
7450.22
6825.29
6344.89
5600.58
5075.93
4277.47
2752.36
4317.76
6359.36
7273.79
6952.37
6324.98
5783.55
5131.33
4678.8
4006.91
2719.36
1072.11
291.769
1840.76
565.222
235.666
2149.91
494.35
218.201
523.21
695.509
1231.73
571.24
1616.01
1099.27
686.614
2221.92
1059.49
555.236
800.418
751.435
1452.18
1069.13
2222.03
2244.9
1951.48
3052.47
2144.3
1207.48
1102.69
820.891
1713.71
1643.26
2883.49
3318.71
3295.02
4090.3
3349.17
2076.73
1559.73
940.41
2015.16
2295.43
3535.9
4213.03
4496.74
5129.34
4493.51
3047.39
2119.9
1120.46
2357.8
2952.53
4141.37
4888.43
5423.63
5982.49
5442.09
4022.15
2808.82
1374.88
2737.29
3656.98
4690.52
5332.54
5966.9
6466.23
6047.72
4837
3495.23
1680.65
3140.49
4318.76
5211
5617.61
6174.21
6548.11
6192.91
5356.28
4118.59
2021.77
3546.89
5027.69
5818.85
5865.14
6160.6
6310.41
5998.07
5549.5
4581.71
2351.28
3928.8
5732.49
6448.71
6104.42
6001.21
5898.36
5639.98
5488.93
4876.75
2646.69
4262.26
6397.34
7083.38
6391.76
5912.47
5562.5
5298.97
5342.65
5046.94
2887.83
4531.25
6986.43
7702.87
6766.28
6053.54
5499.01
5130.43
5263.27
5155.5
3071.52
4725.56
7449.23
8230.36
7207.06
6383.02
5723.5
5230.87
5312.91
5252.12
3217.35
4841.32
7848.88
8747.94
7757.28
6924.62
6213.5
5623.3
5501.28
5331.99
3328.13
4874.38
8072.62
9229.83
8428.61
7663.02
6913.85
6179.64
5771.48
5424.77
3428.23
4824.86
8157
9627.67
9119.26
8463.63
7692.29
6822.98
6058.09
5467.69
3509.85
4702.95
8038.81
9889.38
9740.65
9208.21
8430.67
7468.21
6348.04
5517.67
3582.93
4524.9
7750.83
9972.48
10149.7
9700.32
8947.16
7932.49
6560.46
5498.21
3635.01
4298.73
7210.01
9322.05
9691.82
9278.19
8673.96
7742.31
6511.53
5417.15
3662.56
4018.11
6574.06
8468.12
8881.2
8528.9
7977.35
7167.64
6171.44
5186.5
3638.82
1153.76
325.325
568.942
310.698
197.627
616.063
304.057
193.309
1194.61
501.687
1307.66
717.966
1150.35
955.653
699.013
1274.61
841.101
452.578
1035.16
629.221
1474.65
1363.61
2271.11
2296.31
2010.09
2451.55
1819.94
946.962
1075.01
731.81
1657.33
2059.16
3357.66
3681.89
3514.57
3821.38
3043.6
1703.71
1351.93
862.968
1862.17
2782.02
4321.23
4936.65
4985.35
5227.83
4363.75
2627.16
1800.88
1047.5
2091.77
3529.05
5113.47
5931.04
6284.64
6537.95
5665.31
3696.38
2473.73
1314.82
2344.33
4190.74
5796.25
6724.84
7279.4
7604.11
6772.56
4730.09
3216.55
1653.79
2613.55
4809.12
6426.56
7342.85
7985.79
8348.6
7572.52
5640.65
3995.64
2054.51
2889.2
5392.6
7023.89
7841.83
8444.53
8743.8
8011.12
6305.75
4685.29
2476.71
3157.61
5964.02
7624.84
8281.81
8696.56
8821.9
8129.62
6713.35
5259.79
2890.38
3404.03
6511.06
8223.58
8706.38
8893.39
8822.13
8128.39
6940.22
5694.63
3266.07
3615.43
7015.94
8809.49
9150.94
9171.98
8959.16
8197.54
7094.68
6002.64
3585.99
3781.83
7471.59
9381.28
9639.28
9541.83
9232.32
8381.45
7246.1
6240.56
3853.19
3896.89
7856.06
9917.82
10181.2
10029.2
9629.11
8677.13
7395.88
6385.78
4063.14
3957.21
8166.74
10443.6
10780.6
10648
10132.1
9058.05
7581.04
6501.52
4233.56
3962.85
8277.26
10940.9
11446.1
11290.3
10664.4
9443.88
7726.36
6514.42
4359.03
3918.61
8210.4
11280.5
12013.3
11868.4
11142.5
9802.81
7884.11
6530.73
4456.74
3833.06
7961.44
11352.3
12332.1
12207.9
11422.5
10026.6
7978.7
6500.77
4524.67
3708.37
7403.21
10649.5
11816.5
11732
11080
9844.91
7950.9
6451.58
4567.4
3535.56
6688.21
9606.25
10826.5
10849.7
10314.2
9279.04
7702.28
6314.26
4570.11
1031.41
323.352
3951.4
705.998
3027.12
655.024
267.618
1037.57
656.927
306.425
1196.56
742.257
3251.13
1432.71
2594.05
1268.53
659.483
876.24
773.275
440.609
1353.85
1374.83
3513.75
2613.15
3066.99
2193.8
1309.16
972.55
869.847
562.171
1507.26
2083.38
4174.44
3926.37
4046.62
3379.71
2280.81
1359.2
1050.64
693.591
1664.14
2838.28
4985.09
5249.9
5295.36
4724.46
3443
1980.66
1352.56
859.16
1829.86
3626.81
5803.88
6461.45
6644
6204.42
4833.34
2861.58
1829.1
1088.81
2005.56
4352.69
6560.75
7504.34
7884.71
7605.05
6199.67
3865.55
2443.59
1393.39
2189.68
4999.21
7266.12
8392.29
8950.04
8847.2
7471.79
4945.44
3184.08
1776.99
2377.75
5574.55
7916.64
9140.69
9809.25
9814.77
8484.65
5930.18
3956.45
2219.49
2562.74
6101.36
8537.5
9797.54
10476.8
10491.8
9222.18
6760.12
4706.81
2694.73
2736.32
6583.73
9132.3
10390.9
11025.3
10996.3
9759
7411.61
5369.59
3170.15
2890.22
7019.02
9700.55
10946.9
11535.5
11463.2
10202.2
7907.98
5908.89
3616.23
3017.45
7409.85
10253.7
11501.1
12039.4
11915.8
10612.8
8300.9
6344.04
4017.95
3113.23
7738.81
10776
12055.5
12547.5
12321
10938.9
8562.47
6658.77
4361.99
3174.9
7976.33
11274.4
12619.5
13067.6
12709.3
11239.5
8782.34
6904.31
4651.84
3201.63
8039.61
11693.9
13149.4
13515.1
12987.5
11395
8916.19
7065.66
4885.54
3195.88
7945.03
11953.4
13553.7
13866.9
13213.1
11537.8
9043.01
7185.76
5072.26
3161.04
7696.06
11947.8
13722.1
14025
13283.6
11564.1
9122.42
7260.42
5216.13
3096.42
7203.69
11347.5
13254.1
13658.9
12996.7
11445
9149.28
7299.85
5322.67
2994.79
6521.84
10296.7
12279.3
12807.2
12333.4
11043.9
9043.24
7278.05
5388.15
823.149
298.03
1049.9
2724.78
3347.03
700.55
892.602
568.039
333.375
205.857
987.608
627.626
1712.84
2464.52
3190.38
1239.7
905.039
683.558
478.582
294.607
1136.92
1065.88
2382.01
2749.5
3291.47
1824.24
1141.64
810.675
609.886
395.998
1274.26
1642.7
3260.51
3539.88
3837.92
2622.38
1646.38
1049.39
766.583
511.085
1404.32
2282.31
4205.24
4584.6
4693.99
3595.1
2376.18
1440.37
986.685
650.965
1532.36
3056.27
5222.33
5857.09
5944.72
4890.76
3403.79
2034.04
1314.47
835.419
1660.81
3800.5
6183.39
7066.98
7264.56
6294.8
4597.65
2802.83
1764.76
1081.35
1790.61
4474.11
7081.28
8218.21
8566.17
7826.12
5967.66
3734.54
2344.8
1401.55
1920.62
5066.34
7881.39
9242.64
9752.33
9183.02
7300.23
4736.09
3022.86
1795.26
2047.89
5587.19
8600.72
10159.6
10802.8
10348.3
8524.33
5736.79
3758.66
2250.88
2168.22
6044.1
9254.1
10964.7
11702.9
11324.4
9555.19
6658.23
4499.2
2746.55
2277.06
6440.53
9851.25
11662.5
12462.5
12145.5