/*--------------------------------*- C++ -*----------------------------------*\
  =========                 |
  \\      /  F ield         | OpenFOAM: The Open Source CFD Toolbox
   \\    /   O peration     | Website:  https://openfoam.org
    \\  /    A nd           | Version:  7
     \\/     M anipulation  |
\*---------------------------------------------------------------------------*/
FoamFile
{
    version     2.0;
    format      ascii;
    class       volScalarField;
    location    "1";
    object      ILambda_4_0;
}
// * * * * * * * * * * * * * * * * * * * * * * * * * * * * * * * * * * * * * //

dimensions      [1 0 -3 0 0 0 0];

internalField   nonuniform List<scalar> 
4000
(
734.628
573.99
253.798
146.059
144.132
143.273
142.83
142.713
142.653
142.55
945.228
763.241
298.54
147.625
144.931
143.672
142.985
142.789
142.688
142.552
956.68
757.627
322.124
149.701
146.066
144.181
143.115
142.831
142.697
142.544
839.64
695.002
329.559
152.505
147.611
144.469
143.159
142.849
142.699
142.536
710.663
674.067
325.578
156.026
149.501
144.397
143.179
142.864
142.701
142.529
632.936
658.332
320.104
160.508
150.512
144.279
143.192
142.877
142.701
142.523
621.353
645.121
315.997
164.932
150.314
144.204
143.202
142.887
142.701
142.518
609.194
632.235
318.761
169.594
149.86
144.191
143.207
142.893
142.701
142.515
594.229
629.392
325.619
170.562
149.514
144.203
143.203
142.893
142.7
142.514
606.102
631.936
331.769
168.87
149.371
144.202
143.19
142.888
142.699
142.515
621.511
632.549
321.664
166.464
149.36
144.169
143.17
142.876
142.697
142.516
645.447
635.603
306.315
162.695
149.349
144.123
143.142
142.857
142.694
142.519
684.794
645.679
303.132
156.571
149.129
144.088
143.102
142.832
142.688
142.523
709.852
653.709
303.811
150.296
148.389
144.064
143.051
142.801
142.678
142.526
746.152
648.22
302.683
147.047
146.871
144.003
142.988
142.763
142.664
142.528
800.952
632.876
291.471
144.584
144.664
143.813
142.905
142.716
142.641
142.526
783.026
600.826
269
143.572
143.049
143.42
142.793
142.657
142.609
142.519
641.415
538.982
232.492
142.965
142.567
142.829
142.645
142.581
142.562
142.502
390.654
370.8
190.44
142.669
142.405
142.446
142.474
142.487
142.496
142.47
168.459
164.735
153.685
142.455
142.36
142.365
142.378
142.396
142.414
142.416
1366.18
955.309
242.949
148.582
145.07
143.505
142.918
142.725
142.603
142.472
1679.49
1240.87
259.337
150.244
145.745
143.715
142.992
142.755
142.613
142.47
1994.62
1571.86
268.405
152.15
146.475
143.887
143.038
142.77
142.614
142.465
2119.26
1695.88
272.069
154.226
147.181
143.949
143.052
142.778
142.614
142.461
1917.15
1488.54
270.546
156.286
147.718
143.907
143.057
142.783
142.613
142.458
1619.04
1300.25
267.003
158.17
147.877
143.856
143.057
142.786
142.612
142.456
1455.17
1154.6
263.836
159.496
147.711
143.822
143.053
142.785
142.611
142.454
1418.12
967.803
262.582
160.015
147.469
143.804
143.042
142.781
142.61
142.454
1412.96
890.147
261.793
159.148
147.252
143.783
143.023
142.772
142.607
142.454
1443.98
934.533
258.967
157.268
147.058
143.747
142.996
142.758
142.603
142.454
1518.15
1010.95
252.329
154.706
146.806
143.682
142.961
142.738
142.597
142.455
1613.13
1131.89
246.026
151.593
146.427
143.599
142.916
142.713
142.589
142.455
1689.64
1314.54
242.638
148.375
145.862
143.509
142.863
142.683
142.577
142.454
1740.06
1433.13
238.463
145.837
145.052
143.395
142.8
142.646
142.561
142.452
1775.79
1406.68
229.941
144.326
144.07
143.237
142.728
142.603
142.539
142.446
1638.88
1332.72
214.757
143.341
143.158
143.017
142.646
142.555
142.511
142.438
1183.18
1082.1
194.28
142.866
142.622
142.752
142.558
142.501
142.476
142.424
596.717
575.645
172.357
142.579
142.432
142.505
142.468
142.446
142.438
142.406
245.406
231.239
155.163
142.44
142.365
142.378
142.392
142.395
142.397
142.384
151.53
149.35
144.923
142.368
142.346
142.348
142.352
142.357
142.361
142.36
1792.87
1110.95
222.813
149.366
145.174
143.5
142.939
142.7
142.548
142.425
2096.54
1356.72
231.473
150.561
145.577
143.622
142.997
142.719
142.552
142.424
2410.21
1638.52
238.969
151.761
145.944
143.721
143.039
142.725
142.551
142.422
2727.43
1952.87
246.887
152.88
146.236
143.792
143.047
142.726
142.551
142.42
3003.81
2233.96
255.724
153.79
146.424
143.829
143.042
142.726
142.55
142.418
2705.31
2133.22
261.481
154.317
146.49
143.821
143.034
142.724
142.549
142.417
2389.51
1847.45
246.46
154.26
146.474
143.802
143.025
142.719
142.547
142.417
2261.53
1467.78
232.035
153.681
146.396
143.777
143.009
142.711
142.543
142.416
2243.31
1169.67
224.992
152.647
146.294
143.722
142.983
142.697
142.539
142.416
2311.31
1244.89
222.964
151.25
146.018
143.637
142.947
142.678
142.532
142.415
2406.53
1464.28
221.729
149.238
145.574
143.554
142.901
142.654
142.523
142.414
2484.34
1781.43
222.557
147.079
144.983
143.456
142.845
142.625
142.512
142.412
2492.18
2118.96
225.875
145.464
144.31
143.314
142.784
142.592
142.497
142.409
2374.09
2069.25
224.092
144.312
143.687
143.147
142.719
142.556
142.479
142.404
2090.72
1721.63
207.992
143.493
143.102
142.965
142.651
142.517
142.458
142.398
1455.85
1175.6
177.929
142.885
142.686
142.758
142.584
142.478
142.434
142.389
595.943
545.081
161.496
142.573
142.465
142.55
142.513
142.44
142.41
142.379
284.639
261.501
151.491
142.428
142.381
142.416
142.439
142.405
142.386
142.368
174.518
164.405
145.635
142.37
142.351
142.359
142.375
142.374
142.365
142.357
150.966
144.03
142.925
142.348
142.343
142.344
142.346
142.349
142.349
142.347
2027.38
1134.35
206.956
148.946
145.017
143.583
143.076
142.77
142.574
142.58
2308.57
1341.71
213.82
149.657
145.277
143.725
143.191
142.827
142.57
142.531
2599.07
1578.45
221.37
150.294
145.51
143.876
143.31
142.847
142.55
142.402
2894.36
1848.14
230.396
150.82
145.714
144.04
143.416
142.843
142.55
142.401
3187.32
2155.35
241.438
151.197
145.89
144.201
143.461
142.84
142.552
142.401
3450.78
2480.11
253.782
151.366
146.039
144.322
143.481
142.839
142.553
142.401
3282.61
2427.34
262.187
151.257
146.136
144.332
143.491
142.839
142.554
142.401
3066.91
2069.49
241.39
150.571
146.169
144.302
143.498
142.833
142.553
142.402
2924.16
1557.61
220.519
149.608
146.102
144.222
143.476
142.821
142.551
142.403
2921.66
1579.19
215.969
148.588
145.888
144.116
143.42
142.802
142.546
142.405
2953.57
1864.37
221.51
147.109
145.234
143.969
143.349
142.775
142.539
142.407
2911.1
2232.75
230.944
145.637
144.396
143.782
143.258
142.742
142.532
142.412
2676.68
2419.19
234.004
144.685
143.768
143.566
143.144
142.707
142.524
142.42
2158.55
1877.13
212.32
143.783
143.227
143.305
143.027
142.671
142.518
142.434
1424.06
1138.71
172.628
142.972
142.807
143.02
142.915
142.635
142.513
142.457
600.268
486.354
155.596
142.595
142.536
142.71
142.781
142.601
142.512
142.497
287.916
255.468
148.49
142.43
142.412
142.505
142.626
142.561
142.512
142.561
184.554
173.165
144.958
142.372
142.364
142.396
142.47
142.505
142.508
142.666
151.598
147.698
143.171
142.35
142.347
142.356
142.383
142.429
142.489
142.834
144.34
142.74
142.473
142.343
142.342
142.343
142.346
142.361
142.426
142.901
2126.19
1091.78
195.891
148.264
145.119
144.053
143.598
143.21
142.972
143.52
2389.39
1268.98
202.22
148.716
145.394
144.325
143.87
143.416
142.959
143.313
2665.89
1472.16
209.621
149.115
145.677
144.639
144.191
143.611
142.838
142.438
2954.55
1705.43
218.465
149.454
145.97
145.001
144.564
143.751
142.844
142.439
3254.2
1973.79
229.037
149.735
146.269
145.388
144.877
143.829
142.856
142.439
3563.34
2282.1
241.419
149.943
146.569
145.743
145.069
143.893
142.871
142.441
3845.32
2619.64
255.258
150.038
146.796
145.96
145.167
143.955
142.889
142.446
3672.12
2571.41
262.672
149.927
146.964
145.984
145.139
144.002
142.906
142.455
3412.25
2118.77
238.341
149.081
146.859
145.969
145.055
144.025
142.924
142.469
3200.84
1830.57
223.142
148.13
146.56
145.881
144.934
144.001
142.94
142.491
3083.92
2087.65
229.357
146.857
145.673
145.444
144.801
143.934
142.958
142.524
2836.38
2388.59
237.4
145.567
144.605
144.838
144.633
143.836
142.981
142.574
2247.99
2015.27
218.704
144.49
143.862
144.35
144.387
143.721
143.016
142.652
1432.87
1132.29
173.131
143.282
143.183
143.824
144.059
143.607
143.065
142.771
595.512
450.903
152.934
142.726
142.772
143.228
143.639
143.479
143.128
142.953
288.378
241.379
146.723
142.476
142.511
142.773
143.211
143.325
143.199
143.229
187.188
173.27
144.225
142.383
142.404
142.515
142.801
143.116
143.26
143.647
154.557
150.241
143.072
142.356
142.36
142.399
142.523
142.847
143.272
144.275
144.899
143.641
142.55
142.345
142.346
142.358
142.405
142.584
143.159
145.226
142.805
142.436
142.371
142.342
142.342
142.343
142.351
142.407
142.784
145.329
2131.6
1022.66
188.897
148.172
146.02
145.484
145.213
144.776
144.836
148.347
2377.24
1177.13
195.186
148.626
146.475
146.068
145.895
145.332
144.73
147.362
2637.29
1355.33
202.71
149.08
146.969
146.739
146.724
146.038
144.35
142.708
2910.3
1561.29
211.781
149.544
147.497
147.496
147.709
146.893
144.528
142.702
3193.49
1799.73
222.71
150.027
148.02
148.287
148.66
147.486
144.652
142.688
3481.75
2076.06
235.825
150.437
148.51
149.001
149.346
147.856
144.779
142.688
3763.91
2395.39
251.461
150.705
148.758
149.451
149.576
148.099
144.914
142.71
3893.84
2713.32
268.815
150.858
148.828
149.374
149.526
148.22
145.039
142.755
3569.12
2429.01
254.058
150.381
148.692
149.207
149.406
148.209
145.167
142.834
3166.03
1927.23
231.781
149.283
148.148
148.866
149.189
148.106
145.3
142.963
2842.68
2030.75
231.546
147.81
146.949
148.04
148.749
147.991
145.412
143.158
2356.02
2102.3
229.283
146.198
145.555
146.99
148.13
147.811
145.542
143.452
1536.49
1324.91
194.141
144.619
144.487
146.055
147.419
147.471
145.74
143.895
664.561
464.398
153.817
143.421
143.67
145.018
146.524
146.988
145.99
144.552
287.877
232.118
146.279
142.881
143.047
143.811
145.363
146.378
146.283
145.526
187.956
170.556
143.927
142.542
142.608
143.028
144.144
145.617
146.593
146.978
155.877
150.773
142.966
142.39
142.443
142.617
143.243
144.702
146.811
149.135
145.824
144.375
142.556
142.357
142.369
142.441
142.735
143.803
146.751
152.346
143.034
142.662
142.397
142.346
142.349
142.375
142.509
143.162
146.142
157.163
142.45
142.364
142.349
142.342
142.342
142.347
142.383
142.638
144.465
157.392
2064.06
942.763
185.866
149.702
148.778
149.335
149.735
149.088
148.036
152.435
2285.99
1076.93
192.589
150.483
149.681
150.661
151.519
150.874
148.238
144.684
2519.27
1231.24
200.726
151.35
150.655
152.153
153.664
153.276
149.429
143.533
2761.02
1408.43
210.606
152.31
151.669
153.758
156.125
156.091
150.657
143.477
3006.52
1611.19
222.599
153.285
152.635
155.293
158.503
158.422
151.429
143.397
3248.79
1841.8
236.749
153.75
153.094
156.429
160.27
159.847
151.966
143.342
3477.54
2101.71
253.751
153.757
153.134
156.831
160.714
160.59
152.405
143.365
3664.59
2384.17
273.495
153.74
152.69
156.325
160.271
160.756
152.719
143.441
3440.7
2451.62
285.31
153.376
152.164
155.407
159.397
160.754
153.007
143.601
2908.07
1929.21
249.805
152.031
151.338
154.529
158.545
160.394
153.123
143.858
2410.63
1795.64
240.77
150.166
149.709
153.189
157.561
159.657
153.171
144.231
1773.11
1551.56
227.087
148.102
147.857
151.585
156.326
158.532
153.129
144.746
910.026
646.147
168.429
146.134
146.486
149.958
154.642
157.025
152.944
145.435
315.966
239.657
148.575
144.943
145.291
147.763
152.089
155.122
152.699
146.323
189.552
169.458
144.954
144.122
144.069
145.463
148.961
152.515
152.185
147.427
157.04
150.873
143.493
143.203
143.186
143.817
145.911
149.572
151.37
148.767
146.621
144.798
142.675
142.548
142.571
142.904
143.957
146.645
150.074
150.244
143.392
142.917
142.452
142.394
142.406
142.521
142.963
144.507
148.307
151.731
142.549
142.438
142.371
142.354
142.357
142.394
142.575
143.367
146.35
152.922
142.372
142.349
142.345
142.343
142.343
142.35
142.394
142.664
144.263
152.983
1945.86
863.902
188.53
155.138
156.413
159.907
162.611
161.702
155.329
147.149
2140.86
980.966
196.701
156.882
158.486
163.205
167.492
167.606
159.501
145.535
2343.73
1115.23
206.646
158.849
160.691
166.826
173.2
174.976
164.306
145.081
2550.96
1268.82
218.712
161.034
162.904
170.422
179.438
183.404
168.6
144.93
2756.69
1443.06
232.416
162.707
164.054
172.47
184.767
190.343
171.467
144.74
2956.01
1640.72
247.912
162.582
163.397
172.558
187.7
194.592
173.827
144.688
3140.83
1864.98
266.185
161.701
161.895
171.33
186.906
196.078
175.097
144.666
3292.83
2116.1
289.219
160.502
160.573
169.274
183.835
195.799
175.264
144.69
3211.04
2338.52
311.071
159.756
159.132
167.215
180.698
194.204
174.363
144.781
2638.33
1911.15
272.774
158.096
157.802
165.512
178.222
191.532
174.054
145.122
2030.43
1581.3
253.421
155.995
155.824
163.506
176.767
190.127
173.817
145.582
1321.85
1115.51
226.74
153.775
153.714
161.137
175.127
188.234
173.333
146.171
520.201
329.969
162.455
151.708
152.091
158.488
171.808
183.17
172.108
146.896
208.334
179.127
151.31
150.416
150.26
155.047
166.448
176.375
168.879
147.534
162.414
155.268
148.648
148.334
148.477
151.189
158.892
168.128
164.815
148.141
150.472
148.011
145.97
145.858
146.119
147.672
151.222
159.046
160.172
148.636
145.815
144.638
143.845
143.444
143.756
144.686
146.044
150.994
155.332
148.896
143.228
142.906
142.706
142.547
142.58
142.875
143.426
145.619
150.049
148.564
142.543
142.495
142.45
142.395
142.389
142.443
142.624
143.432
145.922
147.492
142.384
142.364
142.351
142.345
142.344
142.351
142.382
142.545
143.28
145.236
1819.08
805.25
204.453
172.81
177.693
188.694
200.547
200.662
179.858
147.904
1995.94
913.533
217.037
178.237
183.181
196.738
214.326
219.076
194.252
148.087
2181.11
1038.59
232.197
184.513
189.185
205.175
229.902
241.183
207.678
147.735
2366.65
1180.59
249.593
191.276
195.321
213.067
244.676
263.165
219.988
147.608
2548.22
1335.46
261.63
191.776
195.771
214.181
252.535
278.507
228.695
147.439
2731.41
1514.69
273.559
187.418
190.252
209.38
252.548
285.782
235.082
147.075
2913.74
1727.74
291.691
182.838
182.906
202.488
245.744
285.97
238.971
147.124
3079.11
1976.51
315.225
179.264
178.587
195.972
234.304
277.721
236
147.03
3038.59
2217.03
339.746
178.588
175.208
191.493
223.506
265.016
227.676
147.004
2453.26
1896.78
302.69
175.587
173.664
189.201
219.9
257.086
227.085
147.344
1819.28
1453.08
275.218
174.46
172.349
187.41
220.276
259.412
227.377
147.784
1132.38
879.969
239.274
173.71
171.358
185.233
220.897
263.494
227.829
148.313
410.252
254.143
176.066
170.853
170.84
182.076
218.096
256.775
227.418
148.904
191.669
177.166
168.145
170.114
168.941
176.877
206.682
238.413
214.949
149.164
169.573
167.258
164.786
166.197
166.111
169.665
190.144
215.093
200.112
149.214
164.216
163.044
160.656
159.602
158.557
160.703
172.736
191.742
186.891
149.256
158.178
155.426
152.489
150.634
149.324
150.835
157.273
169.477
173.158
148.547
148.601
145.851
144.286
143.799
143.315
143.82
146.718
152.788
159.773
147.509
143.098
143
142.812
142.71
142.52
142.576
143.1
144.886
149.972
146.023
142.45
142.412
142.37
142.359
142.348
142.354
142.397
142.59
143.487
143.807
1762.74
810.373
258.247
231.627
242.653
271.608
305.918
307.67
234.968
151.197
1951.03
930.989
283.517
250.657
260.273
294.673
343.871
361.128
270.898
152.374
2153.22
1073.51
313.247
272.641
280.031
319.037
385.42
419.771
307.682
152.378
2311.15
1210.49
343.113
291.988
298.018
337.567
415.231
462.571
338.28
152.587
2458.59
1339.6
341.838
276.637
285.857
323.98
415.124
484.215
358.614
152.66
2642.45
1497.48
334.723
251.121
259.613
297.528
395.877
483.107
365.279
151.639
2848.97
1718.83
346.205
228.318
233.278
271.474
364.348
462.233
363.287
151.713
3046.87
1986.41
370.033
222.245
219.403
254.59
330.07
432.915
371.135
152.963
3001.11
2254.12
398.743
219.454
216.339
247.525
309.879
398.566
383.458
155.07
2407.24
1962.97
360.639
218.475
216.407
246.83
308.145
382.688
370.622
154.086
1790.36
1475.01
331.25
222.372
219.882
249.599
316.176
394.834
362.575
153.949
1148.68
873.162
294.139
228.164
225.221
252.91
326.119
414.718
349.883
153.58
463.487
292.572
230.414
232.02
230.577
254.124
331.181
415.47
318.245
151.291
245.56
236.507
227.038
235.436
236.694
251.476
320.969
389.565
303.95
151.786
234.828
235.418
225.415
237.193
233.84
241.273
290.935
348.082
286.62
152.359
241.595
239.287
216.177
219.312
213.048
219.047
249.862
291.824
252.192
152.088
237.545
213.015
185.273
187.683
180.338
186.142
204.849
234.212
213.34
150.103
195.112
170.959
150.292
151.837
148.976
152.138
163.501
185.224
179.826
148.434
146.9
144.922
143.736
144.137
143.344
143.557
145.31
152.606
155.596
146.484
142.708
142.538
142.41
142.423
142.388
142.401
142.498
142.973
143.796
143.874
1900.28
970.879
434.682
395.627
442.903
508.598
566.878
546.685
338.464
155.651
2151.96
1143.77
506.709
445.442
501.377
582.14
665.692
674.875
411.236
157.576
2405.44
1343.19
587.974
500.283
553.826
650.212
765.499
795.442
481.826
158.07
2433.61
1425.07
600.553
541.698
573.207
646.869
791.925
846.748
535.275
159.008
2564.14
1488.22
534.58
485.937
508.077
575.615
737.378
844.906
557.136
157.935
2783.07
1641.75
473.185
405.17
425.82
489.543
656.317
812.062
584.029
159.258
3047.77
1903.75
469.923
335.666
352.297
416.375
569.973
756.838
626.388
162.556
3293.34
2238.05
509.363
317.915
319.483
378.133
499.75
673.913
620.828
163.242
3159.34
2579.75
559.715
322.893
322.369
372.795
471.867
601.318
592.382
160.355
2562.69
2334.48
529.909
332.576
331.772
382.015
480.523
588.211
564.306
159.595
1965.96
1762.92
495.087
350.344
352.242
401.571
508.633
622.924
561.621
159.96
1367.04
1046.78
447.271
372.582
379.061
425.432
542.673
673.597
560.177
160.583
725.63
442.786
380.415
395.659
406.611
447.964
570.805
702.396
525.626
160.482
418.816
390.845
390.823
423.267
440.551
467.718
576.95
671.756
462.46
156.636
405.601
406.683
409.339
434.458
446.016
464.251
543.651
600.13
386.112
153.947
427.542
426.921
402.429
382.317
398.304
419.953
474.35
513.324
345.095
153.979
437.051
394.3
331.884
285.683
311.642
337.14
371.066
404.197
290.121
153.26
380.623
280.493
222.132
175.516
203.577
231.002
243.664
282.688
218.22
149.81
171.631
154.001
151.846
147.725
156.832
157.474
158.546
180.481
168.963
147.452
143.69
142.922
142.709
142.55
142.969
142.935
143.037
144.285
144.882
144.281
2239.76
1347.28
829.081
812.952
898.17
1007.06
1095.86
974.825
513.089
241.183
2556.55
1594.38
975.208
946.086
1040.29
1169.57
1312.07
1221.94
628.046
164.922
2863.47
1851.32
1114.07
1069.71
1164.62
1311.09
1498.05
1427.82
739.359
165.298
2924.46
1854.72
1057.89
1084.05
1148.68
1243.11
1449.19
1443.84
823.868
166.562
3006.45
1826.95
841.9
903.941
960.073
1039.95
1266.22
1379.92
869.385
167.574
3262.27
2018.42
719.555
715.334
764.914
833.46
1066.35
1270.75
891.279
168.447
3570.19
2347.22
705.738
568.813
605.149
683.223
890.75
1131.29
881.024
167.072
3756.27
2762.31
760.567
531.326
541.566
618.902
776.054
983.704
864.381
167.964
3468.88
3132.18
838.304
554.74
560.018
628.185
753.242
886.016
819.425
167.478
2889.47
2860.8
824.6
595.428
600.272
665.788
790.702
890.698
778.648
166.256
2329.35
2231.96
791.923
643.715
658.585
723.426
860.503
963.273
785.43
167.015
1792.34
1455.19
743.159
701.08
730.816
792.409
944.96
1063.35
796.84
168.078
1242.3
793.533
685.058
771.94
813.948
864.927
1029.49
1147.69
754.461
167.123
843.068
696.004
715.687
848.026
905.257
936.701
1091.4
1155.55
681.039
167.146
752.216
706.467
746.287
875.916
928.368
956.552
1083.03
1093.1
608.984
170.181
747.337
721.538
736.942
776.334
828.803
881.68
993.433
986.108
508.301
171.686
704.896
682.357
628.111
578.97
630.633
696.887
813.209
845.385
399.453
176.307
475.353
442.349
367.613
309.7
353.31
424.767
541.996
686.161
288.844
184.891
188.352
176.2
174.319
175.19
183.982
199.517
288.54
555.89
206.817
200.203
144.694
143.795
143.565
143.683
144.854
152.427
210.669
645.682
157.372
224.189
2806.36
1951.25
1478.57
1548.67
1698.77
1843.6
1901.69
1562.83
737.617
189.586
3196.96
2269.7
1697.07
1784.9
1959.4
2135.5
2264.66
1943.05
924.795
175.876
3608.93
2586.61
1838.12
1966.12
2185.59
2380.69
2553.63
2255.07
1083.01
176.896
3994.29
2706.14
1689.01
1869.38
2109.1
2202.71
2366.38
2228.64
1180.02
177.826
4266.78
2759.6
1362.24
1497.45
1739.53
1792.51
2004.2
2067.62
1219.83
178.333
4435.9
2923.09
1182.46
1199.57
1363.32
1399.7
1637.85
1850.7
1244.47
180.573
4512.75
3222.21
1171.97
1007.17
1086.26
1142.84
1357.2
1611.2
1215.61
183
4399.86
3576.82
1258.47
956.385
980.551
1047.49
1205.5
1395.77
1144.92
181.706
4009.08
3767.92
1374.67
1003.02
1019.69
1080.27
1198.62
1287.42
1094.99
184.694
3491.85
3453.32
1373.72
1085.89
1110.88
1166.23
1279.79
1319.25
1052.84
187.066
3026.29
2882.31
1339.68
1179.17
1235.55
1285.93
1408.2
1440.82
1073.22
189.793
2612.63
2216.55
1278.81
1282.56
1385.6
1426.6
1559.63
1601.48
1102.19
193.804
2216.68
1633.95
1199.54
1396.55
1552.6
1576.27
1712.81
1747.06
1070.16
201.143
1877.63
1430.24
1217.89
1489.53
1710.65
1717.05
1831.33
1795.11
1012.72
215.474
1603.9
1341.71
1227.04
1484.16
1733.83
1759.63
1839.42
1717.09
890.948
232.624
1287.85
1197.6
1173.39
1319.37
1534.04
1621.42
1694.56
1537.46
750.64
264.01
888.035
904.22
960.209
1007.83
1122.67
1251.33
1358.4
1255.78
619.167
313.447
555.153
500.135
550.028
529.308
572.902
702.64
850.234
870.262
462.852
387.525
483.358
200.05
230.919
219.069
214.831
238.104
320.849
448.45
323.713
501.113
620.663
146.946
146.838
144.926
146.335
151.756
177.772
271.919
222.327
674.312
3498.02
2805.5
2453.97
2675.17
2967.98
3045.11
2943.6
2280.99
1117.9
566.271
3904.75
3193.04
2760.97
3022.57
3413.51
3505.51
3460.95
2776.24
1359.19
589.959
4315.45
3573.91
2921.27
3247.55
3743.38
3875.69
3845.56
3132.14
1514.89
433.147
4724.37
3849.07
2713.3
2966.15
3455.97
3536.35
3538.96
3097.16
1627.38
197.281
5125.72
4090.82
2458.11
2477.15
2860.88
2889.88
2976.83
2889
1694.44
203.006
5438.44
4360.19
2313.7
2079.93
2307.26
2291.36
2435.32
2579.64
1706.44
208.012
5502.6
4592.8
2316.78
1832.9
1918.37
1899.94
2042.73
2243.27
1643.63
211.975
5259.89
4720.54
2431.68
1766.35
1770.36
1756.56
1848.86
1975.79
1557.12
217.517
4829.16
4664.59
2562.84
1830.83
1820.89
1806.41
1852.97
1864.15
1493.96
226.097
4343.62
4331.81
2541.2
1951.03
1967.79
1947.98
1978.17
1920.08
1476.87
237.391
3888.41
3864.57
2493.08
2092.6
2180.18
2149.22
2168.31
2081.23
1499.61
245.557
3436.06
3343.85
2400.74
2237.71
2427.35
2382.99
2387.59
2286.11
1526.29
257.405
2926.83
2843.25
2237.25
2365.21
2668.8
2618.73
2601.28
2463.55
1518.46
283.268
2332.22
2448.64
2155.02
2427.84
2847.94
2815.09
2751.84
2511.96
1446.2
322.32
1665.31
2026.06
2038.52
2336.2
2817.14
2840.78
2736.58
2372.15
1296.74
379.057
1072.21
1549.73
1816.41
2028.5
2472.65
2570.85
2485.92
2049.46
1091.13
461.768
663.303
1061.75
1467.24
1519.59
1836.52
1952.78
1948.42
1575.61
873.1
583.425
434.62
616.274
1061.89
849.038
998.305
1072.66
1154.58
1003.82
630.612
760.435
332.505
334.986
750.232
282.089
302.794
292.346
363.269
433.868
392.418
635.986
266.454
241.361
854.446
148.98
148.95
150.804
161.615
188.823
202.212
389.94
4303.51
4070.18
3987.95
4345.36
4674.5
4664.2
4068
2980.84
1520.56
793.552
4660.93
4553.89
4473.04
4887.77
5301.8
5364.02
4707.11
3529.95
1802.87
828.468
4971.28
5002.93
4775.5
5207.95
5740.46
5686.18
5170.56
3881.53
1993.51
688.675
5217.12
5296.52
4555.93
4782.65
5315.71
5238.27
4869.73
3895.46
2172.42
881.051
5392.56
5555.33
4387.07
4234.29
4598.81
4501.11
4290.12
3737.66
2224.44
731.655
5456.8
5768.32
4295.03
3743.31
3889.84
3726
3629.2
3471.06
2244.07
473.811
5377.47
5899.57
4294.65
3415.21
3366.2
3149.95
3097.78
3142.61
2222.91
614.417
5143.16
5883.21
4374.59
3308.28
3151.91
2901.74
2822.69
2834.9
2166.6
835.774
4778.4
5719.91
4442.96
3365.41
3192.65
2939.71
2806.14
2684.83
2066.72
381.205
4300.36
5371.8
4403.01
3501.36
3390.95
3133.37
2952.49
2738.79
2078.49
459.316
3741.97
4910.58
4312.56
3699.21
3710.28
3444.06
3196.45
2922.68
2118.5
571.67
3123.09
4371.4
4146.99
3893.43
4071.34
3809.38
3473.55
3145.59
2149.82
744.938
2477.2
3785.91
3887.24
4005.31
4372.43
4154.15
3714.11
3294.21
2121.92
1018.5
1858.18
3196.54
3603.45
3994.66
4528.58
4412.52
3841.8
3240.9
1972.39
645.034
1306.63
2546.8
3228.16
3764.38
4382.73
4402.05
3716.73
2945.21
1837.33
844.789
872.352
1895.44
2715.04
3255.63
3817.16
3995.96
3236.1
2475.3
1653.34
1135.57
561.464
1275.23
2103.34
2529.23
2905.67
3264.34
2411.13
1906.89
1478.45
1015.91
362.381
744.307
1449.2
1711.78
1801.49
2475.21
1409.63
1301.98
1375.52
806.593
245.662
354.365
722.268
964.985
775.841
1974.25
459.482
732.167
1491.9
950.22
182.055
206.362
418.151
964.115
447.084
2388.57
186.376
388.087
1822.7
863.135
5421.03
6067.4
6350.89
6648.12
6713.87
6272.9
5163.41
3479.77
1848.34
938.969
5713.1
6741.91
7149.19
7475.99
7556.42
7094.59
5907.59
3993.66
2146.47
1051.26
5900.07
7274.74
7714.75
7948.06
8077.35
7515.51
6341.01
4318.51
2376.36
1108.8
5971.67
7519.97
7559.26
7576.09
7712.62
7180.96
6172.12
4446.81
2592.39
1219.41
5945.83
7673.12
7361.77
7064.74
7117.89
6611.3
5770.07
4439.25
2717.48
1172.12
5808.2
7701.86
7189
6593.82
6502.68
5978.74
5286.32
4344.98
2847.36
1094.24
5559.94
7652.98
7074.37
6259.22
5990.36
5399.43
4797.76
4160.36
2941.04
1492.16
5203.33
7462.49
7030.7
6123.2
5707.71
5007.91
4395.21
3956.62
2978.12
2067.49
4759.92
7210.7
7018.31
6149.48
5660.76
4873.39
4232.21
3811.78
2895.11
2007.34
4237.42
6807.42
6904.34
6244.36
5811.74
5015.91
4303.86
3774.41
2829.04
2060.3
3665.9
6295.93
6712.72
6368.39
6164.03
5409.26
4531.56
3822.96
2727.75
1912.41
3073.26
5696.75
6418.62
6420.12
6521.87
5868.67
4792.08
3854.9
2585.36
1641.04
2491.98
5034.88
6012.85
6304.72
6644.29
6152.29
4936.03
3743.01
2389.87
1357.67
1954.59
4357.15
5557.33
5994.26
6464.68
6113.89
4807.7
3436.04
2135.6
830.257
1477.96
3565.3
4951.62
5412.82
5893.69
5679.21
4297.03
2952.59
1940.98
1018.98
1095.31
2770.26
4188.52
4517.64
4921.48
4894.66
3503.6
2350.78
1679.38
1243.04
817.417
1966.65
3332.83
3400.32
3690.57
3934.97
2537.79
1731.97
1407.03
1062.41
661.483
1263.69
2467.63
2147.64
2336.42
2972.78
1503.71
1131.69
1136.92
877.913
633.38
688.076
1710.09
907.303
1045.73
2196.31
578.452
620.396
915.895
815.569
751.241
394.943
1873.72
384.873
485.197
2138.96
187.086
274.294
605.966
696.023
6981.5
8721.37
9229.98
9199.11
8739.11
7624.51
5836.44
3639.41
1947.85
892.841
7214.63
9590.45
10288.1
10234.3
9727.96
8504.17
6538.72
4051.32
2196.69
1004.61
7292.7
10193.4
10967.4
10826.1
10360.4
9017.88
6947.26
4338.75
2425.34
1116.35
7222.48
10400.8
10882
10636.3
10232.2
8968.4
7004.75
4544.7
2666.73
1263.12
7043.91
10452.8
10637.8
10270
9884.75
8705.15
6882.1
4640.98
2862.41
1400.85
6760.12
10366.1
10356.9
9882.7
9488.32
8356.1
6661.9
4679.68
3058.82
1605.29
6380.42
10109.7
10148.1
9622.79
9124.11
8001.4
6366.07
4594.38
3137.6
1847.99
5924.23
9779.39
9968.16
9457.4
8903.98
7727.12
6093.31
4475.68
3142.8
2036.27
5401.9
9348.11
9742.48
9348.03
8804.23
7566.28
5891.25
4316
3029.24
2003.01
4827.13
8819.12
9445.31
9234.92
8783.49
7539.43
5790.47
4167.42
2886.82
1922.21
4219
8186.35
9039.37
9046.61
8801.55
7647.08
5780.32
4006.42
2681.37
1731.16
3598.74
7459.16
8509.69
8703.75
8683.03
7678.66
5717.17
3779.33
2434.6
1483.84
2987.8
6648.24
7858.07
8153.88
8266.17
7399.47
5432.24
3434.13
2171.62
1237.7
2405.45
5734.53
7064.2
7372.2
7543.6
6785.27
4879.06
2959.68
1879.97
1001.91
1873.35
4724.14
6135.85
6350.64
6511.05
5875.78
4096.74
2429.23
1630.99
943.619
1418.7
3601.35
5053.14
5116.87
5184.86
4749.61
3160.06
1854.05
1356.45
837.001
1075.18
2514.87
3790.71
3677.15
3715.52
3532.36
2204.96
1360.53
1181.41
696.005
862.094
1521.53
2455.93
2185.6
2216.11
2324.48
1301.57
916.719
1070.16
567.072
789.132
693.121
1182.89
827.615
880.054
1250.36
573.111
587.112
1093.94
483.486
857.878
270.715
564.235
233.675
293.879
613.479
196.825
329.47
1239.42
382.561
8781.87
11391.7
11958.8
11414.8
10268.2
8279.3
5793.8
3384.14
1802.67
773.453
8932.42
12262.9
13072.9
12480
11252.9
9044.31
6284.71
3627.7
1972.42
861.223
8902.94
12788.1
13687.6
13087.5
11833.3
9524.97
6583.45
3806.87
2129.32
954.117
8719.59
12959
13700.6
13115
11953.5
9712.01
6781.3
3950.65
2274.2
1058.24
8421.54
12950.4
13503.3
12948.6
11889.5
9735.02
6846.01
4032.19
2385.53
1160
8018.28
12772.4
13201.5
12680.3
11723.4
9684.37
6868.82
4082.45
2464.72
1264.87
7522.12
12403.8
12853.7
12376.3
11458.3
9490.69
6721.22
4037.58
2472.87
1338.96
6954.48
11909.4
12469.2
12060.5
11182.9
9261.11
6533.54
3951.1
2426.18
1357.73
6327.86
11299.7
12003.1
11696.4
10880.6
8974.14
6265.73
3763.54
2299.98
1295.58
5655.61
10582.8
11443.5
11252.5
10537
8679.51
5995.86
3533.11
2132.53
1196.26
4952.86
9751.54
10762
10670.5
10104.4
8355
5694.85
3239.52
1911.96
1055.32
4238.32
8813.13
9957.66
9914.31
9487.19
7870.38
5287.34
2881.83
1667.96
901.895
3532.29
7776
9041.74
8974.31
8624.2
7110.47
4707.95
2471.62
1433.45
762.586
2857.03
6636.48
8014.98
7848.32
7541.7
6096.17
3943.75
2018.06
1210.22
644.855
2240.69
5416.58
6911.38
6568.23
6304.66
4944.24
3122.81
1624.35
1035.02
568.63
1715.6
4169.11
5750.63
5164.34
4997.3
3711.94
2264.05
1275.52
880.407
481.315
1312.62
3033.7
4634.04
3725.63
3827.2
2589.03
1571.88
1057.65
778.034
400.175
1038.38
2055.79
3741.01
2371.99
2928.86
1568.78
974.828
932.145
701.329
328.797
886.331
1259.34
3335.41
1214.96
2520.87
766.799
579.514
949.404
644.102
272.072
839.481
699.786
3974.29
561.149
2986.53
294.496
303.136
1107.64
558.739
214.705
10357
13231.8
13545.5
12384.8
10520
7877.91
5103.9
2876.59
1522.23
631.405
10386
13870.8
14397.8
13162
11190.4
8335.07
5339.96
2993.86
1616.83
685.486
10245.2
14209.4
14868.1
13626.9
11611.7
8629.85
5493.27
3069.78
1693.49
738.363
9964.33
14354.1
15089.2
13902.5
11917.1
8861.12
5604.53
3108.86
1747.06
787.929
9558.37
14287.6
15019.1
13953.9
12059.9
9000.22
5655.03
3102.3
1768.58
827.201
9040.56
14069
14784.9
13879.7
12139.9
9125.61
5685.64
3055.37
1754.17
851.523
8415.45
13569.1
14339.7
13530.5
11933.5
9057.51
5613.98
2951.53
1696.19
849.579
7713.88
12898.4
13769.2
13076.8
11588.7
8897.11
5505.14
2807.25
1601.15
818.1
6953.19
12083.5
13047.1
12453.5
11073
8461.45
5243.69
2604.97
1470.89
758.058
6150.51
11146.6
12204.9
11687.4
10419.6
7925.86
4890.42
2366.84
1321.26
683.533
5323.51
10094
11241
10746.6
9593.01
7250.46
4396.94
2085.64
1158.38
599.71
4493.47
8937.35
10165.5
9648.71
8589.88
6408.41
3787.89
1782.29
998.362
518.121