/*--------------------------------*- C++ -*----------------------------------*\
  =========                 |
  \\      /  F ield         | OpenFOAM: The Open Source CFD Toolbox
   \\    /   O peration     | Website:  https://openfoam.org
    \\  /    A nd           | Version:  7
     \\/     M anipulation  |
\*---------------------------------------------------------------------------*/
FoamFile
{
    version     2.0;
    format      ascii;
    class       volScalarField;
    location    "1";
    object      ILambda_7_0;
}
// * * * * * * * * * * * * * * * * * * * * * * * * * * * * * * * * * * * * * //

dimensions      [1 0 -3 0 0 0 0];

internalField   nonuniform List<scalar> 
4000
(
168.428
164.715
153.688
142.455
142.36
142.365
142.378
142.396
142.414
142.416
390.581
370.763
190.446
142.669
142.405
142.446
142.474
142.487
142.496
142.47
641.355
538.967
232.499
142.965
142.567
142.829
142.645
142.581
142.562
142.502
782.99
600.827
269.006
143.572
143.049
143.42
142.793
142.657
142.609
142.519
800.936
632.881
291.474
144.584
144.664
143.813
142.905
142.716
142.641
142.526
746.15
648.223
302.683
147.047
146.871
144.002
142.988
142.763
142.664
142.528
709.847
653.71
303.808
150.296
148.389
144.064
143.051
142.801
142.678
142.526
684.719
645.681
303.128
156.571
149.129
144.088
143.102
142.832
142.688
142.523
645.198
635.609
306.31
162.695
149.349
144.123
143.142
142.857
142.694
142.519
621.293
632.552
321.658
166.464
149.36
144.169
143.17
142.876
142.697
142.516
606.022
631.937
331.768
168.87
149.371
144.202
143.19
142.888
142.699
142.515
594.38
629.388
325.62
170.562
149.514
144.203
143.203
142.893
142.7
142.514
609.363
632.231
318.764
169.595
149.86
144.191
143.207
142.893
142.701
142.515
621.464
645.12
316.002
164.932
150.314
144.204
143.202
142.887
142.701
142.518
632.999
658.333
320.109
160.508
150.512
144.279
143.192
142.877
142.701
142.523
710.697
674.064
325.582
156.026
149.501
144.397
143.179
142.864
142.701
142.529
839.657
694.99
329.56
152.505
147.611
144.469
143.159
142.849
142.699
142.536
956.701
757.611
322.121
149.701
146.066
144.181
143.115
142.831
142.697
142.544
945.291
763.255
298.534
147.625
144.931
143.672
142.985
142.789
142.688
142.552
734.702
574.019
253.792
146.06
144.132
143.273
142.83
142.713
142.653
142.55
151.522
149.346
144.924
142.368
142.346
142.348
142.352
142.357
142.361
142.36
245.383
231.23
155.165
142.44
142.365
142.378
142.392
142.395
142.397
142.384
596.614
575.606
172.36
142.579
142.432
142.505
142.468
142.446
142.438
142.406
1183.07
1082.04
194.283
142.866
142.622
142.752
142.558
142.501
142.476
142.424
1638.83
1332.69
214.759
143.341
143.158
143.017
142.646
142.555
142.511
142.438
1775.78
1406.67
229.941
144.326
144.07
143.237
142.728
142.603
142.539
142.446
1740.07
1433.13
238.462
145.837
145.052
143.395
142.8
142.646
142.561
142.452
1689.61
1314.55
242.637
148.375
145.862
143.509
142.863
142.683
142.577
142.454
1613.06
1131.86
246.024
151.592
146.427
143.599
142.916
142.713
142.589
142.455
1518.04
1010.92
252.326
154.706
146.806
143.682
142.961
142.738
142.597
142.455
1443.9
934.528
258.965
157.267
147.058
143.747
142.996
142.758
142.603
142.454
1412.94
890.169
261.792
159.147
147.252
143.783
143.023
142.772
142.607
142.454
1418.16
967.811
262.582
160.015
147.469
143.804
143.042
142.781
142.61
142.454
1455.22
1154.61
263.837
159.496
147.711
143.822
143.053
142.785
142.611
142.454
1619.06
1300.24
267.006
158.17
147.877
143.856
143.057
142.786
142.612
142.456
1917.14
1488.52
270.55
156.286
147.719
143.907
143.057
142.783
142.613
142.458
2119.3
1695.9
272.072
154.226
147.181
143.949
143.052
142.778
142.614
142.461
1994.72
1571.9
268.406
152.15
146.475
143.887
143.038
142.77
142.614
142.465
1679.57
1240.9
259.337
150.245
145.745
143.715
142.992
142.755
142.613
142.47
1366.25
955.332
242.948
148.582
145.07
143.505
142.918
142.725
142.603
142.472
150.964
144.029
142.925
142.348
142.343
142.344
142.346
142.349
142.349
142.347
174.511
164.403
145.635
142.37
142.351
142.359
142.375
142.374
142.365
142.357
284.607
261.487
151.492
142.428
142.381
142.416
142.439
142.405
142.386
142.368
595.825
544.987
161.497
142.573
142.465
142.55
142.513
142.44
142.41
142.379
1455.64
1175.46
177.926
142.885
142.686
142.758
142.584
142.478
142.434
142.389
2090.59
1721.52
207.978
143.492
143.102
142.964
142.651
142.517
142.458
142.398
2374.01
2069.16
224.078
144.312
143.687
143.147
142.719
142.556
142.479
142.404
2492.14
2118.91
225.869
145.464
144.31
143.314
142.784
142.592
142.497
142.409
2484.59
1781.37
222.553
147.079
144.983
143.456
142.845
142.625
142.512
142.412
2406.78
1464.22
221.726
149.237
145.573
143.554
142.901
142.654
142.523
142.414
2311.33
1244.87
222.961
151.25
146.018
143.637
142.947
142.678
142.532
142.415
2243.02
1169.69
224.99
152.647
146.294
143.722
142.983
142.697
142.539
142.416
2261.32
1467.77
232.03
153.681
146.396
143.777
143.009
142.711
142.543
142.416
2389.37
1847.47
246.462
154.26
146.474
143.802
143.025
142.719
142.547
142.417
2705.21
2133.26
261.495
154.317
146.49
143.821
143.034
142.724
142.549
142.417
3003.86
2234.06
255.737
153.79
146.424
143.829
143.042
142.726
142.55
142.418
2727.54
1953.01
246.897
152.88
146.236
143.792
143.047
142.726
142.551
142.42
2410.33
1638.62
238.976
151.761
145.944
143.721
143.039
142.725
142.551
142.422
2096.64
1356.79
231.478
150.561
145.577
143.622
142.997
142.719
142.552
142.424
1792.95
1111
222.816
149.366
145.174
143.5
142.939
142.7
142.548
142.425
144.34
142.74
142.473
142.343
142.342
142.343
142.346
142.361
142.426
142.901
151.596
147.697
143.172
142.35
142.347
142.356
142.383
142.429
142.489
142.834
184.545
173.161
144.958
142.372
142.364
142.396
142.47
142.505
142.508
142.666
287.88
255.444
148.49
142.43
142.412
142.505
142.626
142.56
142.512
142.561
600.176
486.267
155.594
142.595
142.536
142.71
142.781
142.601
142.512
142.496
1423.87
1138.39
172.616
142.972
142.807
143.02
142.915
142.635
142.513
142.457
2158.35
1876.83
212.284
143.783
143.227
143.305
143.027
142.671
142.518
142.434
2676.61
2418.98
233.969
144.684
143.768
143.566
143.144
142.707
142.524
142.42
2911.43
2232.6
230.926
145.637
144.396
143.782
143.258
142.742
142.532
142.412
2953.97
1864.26
221.5
147.109
145.233
143.969
143.349
142.775
142.539
142.407
2921.76
1579.11
215.959
148.588
145.887
144.116
143.42
142.801
142.546
142.405
2923.81
1557.56
220.507
149.608
146.102
144.222
143.476
142.821
142.551
142.403
3066.55
2069.47
241.392
150.571
146.169
144.302
143.498
142.833
142.553
142.402
3282.38
2427.41
262.214
151.258
146.136
144.332
143.491
142.839
142.554
142.401
3450.71
2480.39
253.811
151.366
146.039
144.322
143.481
142.839
142.553
142.401
3187.32
2155.6
241.46
151.197
145.89
144.201
143.461
142.84
142.552
142.401
2894.42
1848.33
230.413
150.82
145.714
144.04
143.416
142.843
142.55
142.401
2599.15
1578.6
221.383
150.295
145.511
143.876
143.31
142.847
142.55
142.402
2308.66
1341.82
213.829
149.657
145.277
143.725
143.191
142.827
142.57
142.531
2027.47
1134.44
206.962
148.946
145.017
143.583
143.076
142.77
142.574
142.58
142.805
142.436
142.371
142.342
142.342
142.343
142.351
142.407
142.784
145.328
144.898
143.641
142.55
142.345
142.346
142.358
142.405
142.584
143.158
145.225
154.554
150.241
143.072
142.356
142.36
142.399
142.523
142.847
143.272
144.275
187.178
173.264
144.225
142.383
142.404
142.515
142.801
143.116
143.26
143.646
288.347
241.355
146.723
142.476
142.511
142.773
143.211
143.325
143.199
143.229
595.447
450.802
152.93
142.726
142.774
143.228
143.639
143.479
143.127
142.953
1432.75
1131.98
173.11
143.282
143.185
143.824
144.059
143.607
143.065
142.771
2247.94
2014.97
218.672
144.49
143.864
144.35
144.387
143.721
143.016
142.652
2837.18
2388.49
237.373
145.567
144.605
144.838
144.632
143.836
142.981
142.574
3084.7
2087.57
229.334
146.856
145.673
145.444
144.801
143.934
142.958
142.524
3201.16
1830.49
223.129
148.13
146.56
145.881
144.934
144.001
142.94
142.491
3411.57
2118.58
238.332
149.081
146.86
145.969
145.055
144.025
142.924
142.469
3671.51
2571.33
262.678
149.927
146.965
145.984
145.139
144.002
142.906
142.455
3844.9
2619.79
255.278
150.038
146.796
145.96
145.167
143.955
142.889
142.446
3563.07
2282.27
241.439
149.943
146.567
145.743
145.069
143.893
142.871
142.441
3254.05
1973.96
229.055
149.735
146.268
145.388
144.877
143.829
142.856
142.439
2954.49
1705.58
218.48
149.454
145.97
145.001
144.564
143.751
142.844
142.439
2665.88
1472.3
209.633
149.115
145.677
144.639
144.191
143.611
142.838
142.438
2389.42
1269.09
202.23
148.716
145.394
144.325
143.87
143.416
142.959
143.313
2126.24
1091.87
195.899
148.264
145.119
144.053
143.598
143.21
142.972
143.521
142.45
142.364
142.349
142.342
142.342
142.347
142.383
142.638
144.463
157.384
143.034
142.662
142.397
142.346
142.349
142.375
142.509
143.162
146.141
157.155
145.823
144.375
142.556
142.357
142.369
142.441
142.735
143.803
146.749
152.341
155.874
150.772
142.966
142.39
142.443
142.617
143.243
144.701
146.809
149.132
187.947
170.55
143.927
142.541
142.608
143.028
144.144
145.616
146.591
146.976
287.854
232.091
146.278
142.88
143.046
143.811
145.363
146.377
146.282
145.525
664.59
464.307
153.811
143.421
143.669
145.017
146.524
146.987
145.989
144.551
1536.53
1324.75
194.124
144.619
144.487
146.054
147.418
147.47
145.739
143.894
2356.87
2102.26
229.267
146.198
145.555
146.99
148.129
147.811
145.542
143.451
2843.63
2030.77
231.529
147.81
146.949
148.04
148.748
147.991
145.412
143.158
3166.46
1927.16
231.769
149.283
148.148
148.866
149.188
148.105
145.299
142.963
3568.57
2428.83
254.047
150.38
148.691
149.207
149.406
148.209
145.167
142.834
3893.29
2713.22
268.815
150.858
148.828
149.374
149.526
148.22
145.039
142.755
3763.38
2395.36
251.466
150.705
148.758
149.451
149.576
148.1
144.914
142.71
3481.35
2076.08
235.833
150.437
148.511
149.001
149.346
147.857
144.779
142.688
3193.2
1799.78
222.719
150.027
148.021
148.287
148.66
147.486
144.653
142.688
2910.12
1561.36
211.79
149.544
147.497
147.496
147.709
146.893
144.529
142.702
2637.18
1355.41
202.718
149.08
146.969
146.74
146.724
146.039
144.351
142.708
2377.19
1177.2
195.194
148.626
146.475
146.068
145.895
145.332
144.73
147.365
2131.58
1022.73
188.903
148.172
146.02
145.484
145.214
144.776
144.837
148.35
142.372
142.349
142.345
142.343
142.343
142.35
142.394
142.664
144.262
152.978
142.549
142.438
142.371
142.354
142.357
142.394
142.575
143.367
146.348
152.917
143.392
142.917
142.452
142.394
142.406
142.521
142.963
144.506
148.304
151.727
146.62
144.797
142.674
142.548
142.571
142.904
143.957
146.643
150.071
150.24
157.038
150.871
143.493
143.203
143.186
143.816
145.91
149.57
151.367
148.764
189.545
169.45
144.953
144.121
144.068
145.462
148.96
152.513
152.182
147.425
315.979
239.633
148.572
144.942
145.289
147.763
152.087
155.119
152.695
146.321
910.229
646.188
168.426
146.133
146.484
149.957
154.64
157.022
152.941
145.434
1774.09
1551.86
227.113
148.102
147.855
151.584
156.324
158.529
153.126
144.745
2411.72
1795.87
240.791
150.167
149.708
153.188
157.559
159.655
153.169
144.23
2908.66
1929.31
249.808
152.03
151.337
154.528
158.543
160.393
153.122
143.858
3440.29
2451.36
285.276
153.375
152.163
155.406
159.396
160.754
153.006
143.6
3663.99
2383.88
273.471
153.738
152.69
156.325
160.271
160.756
152.719
143.441
3476.99
2101.52
253.737
153.756
153.135
156.831
160.714
160.591
152.405
143.365
3248.33
1841.68
236.743
153.75
153.096
156.429
160.27
159.848
151.967
143.342
3006.16
1611.13
222.597
153.285
152.636
155.293
158.504
158.423
151.43
143.397
2760.74
1408.4
210.607
152.31
151.67
153.759
156.126
156.093
150.658
143.477
2519.07
1231.24
200.728
151.351
150.656
152.154
153.665
153.277
149.43
143.533
2285.86
1076.95
192.593
150.484
149.682
150.662
151.52
150.875
148.24
144.685
2063.98
942.791
185.87
149.702
148.778
149.335
149.736
149.089
148.038
152.439
142.384
142.364
142.351
142.345
142.344
142.351
142.382
142.545
143.279
145.235
142.543
142.495
142.45
142.395
142.389
142.443
142.624
143.432
145.921
147.489
143.228
142.906
142.706
142.547
142.58
142.874
143.426
145.618
150.046
148.562
145.816
144.638
143.845
143.444
143.755
144.684
146.042
150.992
155.328
148.893
150.472
148.01
145.97
145.857
146.118
147.671
151.22
159.043
160.167
148.633
162.413
155.266
148.647
148.332
148.475
151.187
158.89
168.123
164.808
148.139
208.343
179.122
151.308
150.413
150.258
155.045
166.445
176.369
168.872
147.532
520.399
330.002
162.455
151.706
152.088
158.485
171.804
183.163
172.103
146.895
1322.72
1115.91
226.788
153.775
153.711
161.134
175.122
188.227
173.329
146.17
2031.45
1581.67
253.475
155.997
155.822
163.504
176.764
190.121
173.813
145.581
2638.97
1911.35
272.789
158.094
157.8
165.51
178.218
191.528
174.051
145.121
3210.85
2338.28
311.03
159.752
159.13
167.213
180.696
194.202
174.361
144.781
3292.4
2115.85
289.184
160.499
160.572
169.273
183.834
195.8
175.263
144.69
3140.4
1864.77
266.159
161.699
161.895
171.33
186.906
196.08
175.099
144.666
2955.61
1640.56
247.894
162.581
163.399
172.558
187.701
194.596
173.83
144.687
2756.34
1442.94
232.404
162.707
164.056
172.471
184.769
190.347
171.471
144.74
2550.66
1268.74
218.704
161.035
162.906
170.424
179.441
183.408
168.604
144.931
2343.49
1115.18
206.642
158.85
160.693
166.829
173.203
174.98
164.31
145.082
2140.67
980.937
196.699
156.883
158.488
163.207
167.494
167.609
159.504
145.536
1945.72
863.89
188.53
155.14
156.415
159.908
162.613
161.704
155.332
147.151
142.45
142.412
142.37
142.359
142.348
142.354
142.397
142.59
143.488
143.807
143.097
142.999
142.812
142.71
142.52
142.576
143.1
144.886
149.972
146.022
148.602
145.851
144.287
143.798
143.315
143.82
146.718
152.788
159.771
147.508
158.179
155.427
152.491
150.629
149.322
150.835
157.271
169.476
173.155
148.546
164.216
163.046
160.659
159.594
158.553
160.703
172.733
191.738
186.885
149.255
169.575
167.26
164.788
166.189
166.106
169.663
190.14
215.084
200.106
149.213
191.68
177.169
168.145
170.107
168.936
176.872
206.674
238.397
214.941
149.163
410.402
254.17
176.067
170.847
170.836
182.07
218.086
256.757
227.412
148.904
1133.07
880.281
239.324
173.705
171.353
185.227
220.888
263.478
227.824
148.312
1820.13
1453.48
275.292
174.457
172.345
187.404
220.267
259.4
227.374
147.784
2453.85
1896.97
302.705
175.58
173.659
189.195
219.893
257.078
227.082
147.344
3038.54
2216.89
339.704
178.58
175.204
191.489
223.5
265.013
227.673
147.004
3078.86
1976.34
315.184
179.257
178.583
195.97
234.303
277.723
235.998
147.029
2913.46
1727.57
291.658
182.833
182.904
202.489
245.747
285.98
238.972
147.123
2731.12
1514.55
273.534
187.417
190.253
209.383
252.552
285.793
235.083
147.074
2547.95
1335.35
261.61
191.78
195.774
214.185
252.54
278.518
228.699
147.438
2366.4
1180.5
249.577
191.283
195.327
213.07
244.682
263.173
219.993
147.608
2180.89
1038.51
232.187
184.519
189.19
205.179
229.907
241.189
207.683
147.735
1995.75
913.48
217.029
178.242
183.186
196.742
214.331
219.082
194.255
148.087
1818.92
805.213
204.449
172.816
177.698
188.697
200.551
200.666
179.861
147.905
142.708
142.538
142.41
142.423
142.388
142.401
142.498
142.972
143.796
143.874
146.9
144.922
143.735
144.137
143.343
143.558
145.31
152.605
155.597
146.484
195.119
170.962
150.288
151.838
148.976
152.133
163.503
185.23
179.83
148.433
237.539
213.009
185.251
187.669
180.327
186.125
204.854
234.226
213.35
150.103
241.585
239.282
216.152
219.287
213.026
219.029
249.866
291.837
252.2
152.09
234.82
235.415
225.395
237.166
233.816
241.256
290.942
348.083
286.628
152.361
245.565
236.508
227.025
235.415
236.678
251.462
320.977
389.558
303.974
151.788
463.595
292.587
230.407
232.003
230.564
254.113
331.185
415.458
318.277
151.293
1149.19
873.358
294.171
228.152
225.208
252.9
326.116
414.69
349.906
153.583
1791.05
1475.35
331.318
222.361
219.87
249.589
316.17
394.813
362.588
153.952
2407.69
1963.1
360.636
218.456
216.394
246.82
308.137
382.676
370.631
154.087
3001.11
2254.04
398.693
219.432
216.327
247.516
309.875
398.578
383.46
155.068
3046.73
1986.31
369.98
222.222
219.39
254.583
330.066
432.929
371.117
152.961
2848.8
1718.72
346.162
228.3
233.267
271.473
364.341
462.247
363.256
151.71
2642.27
1497.38
334.693
251.114
259.613
297.535
395.871
483.121
365.255
151.635
2458.41
1339.52
341.831
276.649
285.872
323.995
415.122
484.221
358.596
152.656
2310.99
1210.43
343.129
292.012
298.042
337.594
415.229
462.564
338.261
152.584
2153.06
1073.46
313.264
272.661
280.051
319.063
385.417
419.76
307.667
152.376
1950.88
930.946
283.525
250.673
260.294
294.692
343.869
361.122
270.888
152.373
1762.61
810.338
258.251
231.643
242.671
271.621
305.918
307.666
234.962
151.197
143.69
142.922
142.709
142.55
142.969
142.936
143.037
144.284
144.882
144.282
171.655
154.009
151.836
147.719
156.837
157.491
158.556
180.495
168.971
147.452
380.65
280.553
222.091
175.438
203.369
231.485
243.719
282.749
218.25
149.81
437.023
394.285
331.789
285.539
311.45
337.62
371.142
404.293
290.178
153.265
427.514
426.907
402.348
382.183
398.185
420.302
474.415
513.42
345.179
153.984
405.575
406.672
409.288
434.359
445.962
464.483
543.713
600.211
386.218
153.953
418.788
390.839
390.785
423.205
440.544
467.869
576.999
671.797
462.582
156.648
725.498
442.788
380.384
395.612
406.616
448.057
570.821
702.372
525.75
160.501
1367.3
1046.86
447.308
372.552
379.07
425.486
542.666
673.529
560.255
160.597
1966.38
1763.16
495.152
350.318
352.25
401.602
508.621
622.877
561.672
159.971
2562.97
2334.52
529.883
332.542
331.767
382.024
480.51
588.189
564.344
159.601
3159.28
2579.69
559.607
322.852
322.356
372.799
471.872
601.367
592.416
160.356
3293.39
2237.95
509.257
317.869
319.461
378.134
499.778
674.009
620.808
163.232
3047.77
1903.65
469.839
335.619
352.266
416.377
569.997
756.918
626.318
162.541
2783.03
1641.67
473.108
405.131
425.797
489.543
656.327
812.097
583.928
159.246
2564.11
1488.16
534.543
485.942
508.102
575.584
737.38
844.895
557.021
157.925
2433.62
1425.08
600.601
541.787
573.326
646.692
791.889
846.678
535.16
158.996
2405.42
1343.15
588.056
500.431
554.112
649.634
765.421
795.334
481.725
158.062
2151.91
1143.75
506.785
445.564
501.516
581.756
665.622
674.783
411.161
157.57
1900.22
970.862
434.742
395.721
442.969
508.351
566.824
546.619
338.413
155.647
144.694
143.794
143.564
143.68
144.854
152.421
210.627
645.377
157.378
224.215
188.388
176.196
174.284
175.141
183.969
199.507
288.485
555.708
206.848
200.22
475.473
442.381
367.506
309.486
353.135
424.684
542.031
686.189
288.933
184.904
704.886
682.295
627.919
578.632
630.354
696.916
813.314
845.508
399.634
176.321
747.318
721.474
736.744
775.983
828.571
881.799
993.51
986.247
508.527
171.706
752.18
706.406
746.114
875.648
928.25
956.679
1083.05
1093.2
609.299
170.206
842.986
695.958
715.549
847.836
905.208
936.794
1091.36
1155.58
681.387
167.17
1242.11
793.474
684.946
771.786
813.913
864.992
1029.41
1147.59
754.783
167.15
1792.39
1455.21
743.183
700.993
730.786
792.45
944.878
1063.21
797.039
168.103
2329.41
2232.17
792.023
643.656
658.558
723.442
860.432
963.173
785.562
167.035
2889.59
2860.74
824.513
595.348
600.254
665.79
790.651
890.655
778.752
166.268
3468.76
3132
838.071
554.639
560.012
628.181
753.233
886.109
819.526
167.481
3756.25
2762.13
760.346
531.24
541.552
618.902
776.134
983.942
864.372
167.957
3570.23
2347.06
705.565
568.733
605.114
683.254
890.897
1131.53
880.884
167.06
3262.31
2018.3
719.422
715.255
764.85
833.504
1066.53
1270.92
891.021
168.425
3006.51
1826.9
841.848
903.968
960.082
1039.98
1266.37
1379.98
869.101
167.548
2924.63
1854.8
1057.97
1084.24
1148.84
1243.15
1449.21
1443.76
823.548
166.539
2863.54
1851.38
1114.24
1070.04
1164.92
1311.17
1497.96
1427.59
739.07
165.279
2556.6
1594.46
975.405
946.399
1040.53
1169.53
1311.98
1221.73
627.819
164.908
2239.8
1347.35
829.249
813.203
898.333
1006.98
1095.77
974.661
512.927
241.147
620.785
146.942
146.828
144.921
146.338
151.757
177.755
271.854
222.366
674.561
483.447
199.99
230.753
218.894
214.877
238.19
320.887
448.385
323.823
501.279
555.307
500.091
549.723
528.82
572.644
702.68
850.353
870.368
463.125
387.637
888.277
904.169
959.881
1007.18
1122.2
1251.22
1358.49
1255.98
619.606
313.534
1288.09
1197.53
1172.96
1318.66
1533.45
1621.22
1694.48
1537.58
751.193
264.076
1604.04
1341.59
1226.58
1483.25
1732.9
1759.22
1839.1
1717.08
891.529
232.686
1877.65
1430.09
1217.47
1488.54
1709.64
1716.59
1830.86
1794.89
1013.26
215.54
2216.62
1633.76
1199.19
1395.79
1551.88
1575.82
1712.27
1746.62
1070.65
201.198
2612.58
2216.4
1278.75
1281.98
1385.21
1426.21
1559.12
1600.98
1102.51
193.849
3026.17
2882.26
1339.74
1178.77
1235.27
1285.62
1407.8
1440.48
1073.44
189.829
3491.76
3453.13
1373.48
1085.55
1110.66
1166
1279.51
1319.08
1053.02
187.089
4008.87
3767.63
1374.15
1002.75
1019.4
1080.15
1198.54
1287.58
1095.17
184.705
4399.63
3576.5
1257.94
956.12
980.358
1047.52
1205.7
1396.28
1144.97
181.704
4512.63
3221.93
1171.57
1007.23
1086.49
1143.08
1357.68
1611.85
1215.53
182.974
4435.82
2922.87
1182.23
1199.9
1363.96
1400.21
1638.55
1851.32
1244.21
180.538
4266.71
2759.48
1362.24
1497.88
1740.21
1793.08
2004.91
2068.08
1219.38
178.299
3994.21
2706.12
1689.12
1869.96
2109.85
2203.3
2366.89
2228.78
1179.45
177.786
3608.89
2586.69
1838.47
1966.97
2186.43
2381.14
2553.84
2254.93
1082.4
176.863
3197.05
2269.92
1697.58
1785.74
1959.99
2135.71
2264.68
1942.84
924.296
175.848
2806.49
1951.48
1479.03
1549.33
1699.2
1843.72
1901.65
1562.61
737.254
189.558
266.455
241.16
852.937
148.986
148.955
150.806
161.61
188.821
202.248
390.122
332.479
334.637
748.935
282.015
302.869
292.441
363.31
434.014
392.438
635.9
434.589
615.866
1060.82
848.626
998.072
1072.62
1154.71
1004.31
630.606
760.453
663.369
1061.46
1466.41
1518.93
1835.94
1952.5
1948.44
1576.03
873.432
583.461
1072.45
1549.58
1815.62
2027.56
2471.54
2570.21
2485.54
2049.66
1091.59
461.829
1665.66
2025.96
2037.75
2335.29
2815.9
2839.67
2735.72
2371.96
1297.33
379.137
2332.5
2448.48
2154.32
2427.02
2846.6
2813.74
2750.67
2511.41
1446.88
322.405
2926.99
2843.01
2236.74
2364.25
2667.23
2617.49
2600.09
2462.75
1519.03
283.344
3436.1
3343.63
2400.73
2237.24
2425.54
2381.98
2386.61
2285.33
1526.69
257.473
3888.28
3864.34
2493.24
2092.13
2178.84
2148.38
2167.5
2080.65
1499.88
245.615
4343.44
4331.53
2540.9
1950.47
1966.85
1947.32
1977.57
1919.75
1477.14
237.427
4828.87
4664.17
2561.98
1829.9
1820.77
1805.89
1852.58
1864.21
1494.21
226.113
5259.46
4719.98
2430.72
1765.77
1770.6
1756.34
1848.95
1976.39
1557.27
217.517
5502.16
4592.24
2316
1832.39
1918.74
1900.32
2043.47
2244.26
1643.54
211.95
5437.87
4359.55
2313.08
2079.62
2307.89
2292.36
2436.62
2580.77
1706.17
207.961
5125.16
4090.23
2457.78
2477.34
2862.08
2891.21
2978.34
2889.93
1694.03
202.943
4723.93
3848.61
2713.11
2966.66
3457.31
3537.74
3540.25
3097.69
1626.75
197.227
4315.22
3573.75
2921.46
3248.42
3744.77
3876.92
3846.4
3131.99
1514.42
433.058
3904.73
3193.14
2761.58
3023.46
3414.57
3506.34
3461.43
2775.89
1358.81
590.136
3498.12
2805.73
2454.58
2675.99
2968.83
3045.71
2943.86
2280.67
1117.58
566.251
182.043
206.278
417.883
964.698
447.947
2395.01
186.526
389.182
1830.92
863.96
245.602
354.066
721.555
965.379
777.205
1979.02
459.993
733.714
1497.28
950.636
362.26
743.684
1448.26
1711.82
1802.6
2478.33
1410.37
1303.73
1379.06
806.875
561.347
1274.6
2102.47
2528.98
2906.22
3266.11
2411.67
1908.55
1480.99
1016.12
872.322
1894.92
2714.27
3255.02
3816.91
3996.44
3236.1
2476.5
1655.16
1135.94
1306.74
2546.52
3227.47
3763.66
4381.23
4401.04
3715.79
2945.79
1838.71
845.067
1858.42
3196.32
3602.71
3992.95
4526.21
4410.46
3840.08
3240.86
1973.46
645.249
2477.46
3785.69
3886.69
4004.36
4369.94
4151.55
3712.22
3293.6
2122.74
1019.04
3123.37
4371.26
4146.96
3893.65
4068.09
3806.93
3471.85
3144.76
2150.42
745.311
3742.1
4910.4
4312.71
3699.1
3707.6
3442.07
3195.06
2922.01
2118.92
571.93
4300.27
5371.59
4402.88
3500.83
3388.96
3131.86
2951.45
2738.41
2078.9
459.481
4778.03
5719.48
4442.19
3363.53
3192.23
2938.88
2805.58
2685
2067.11
381.305
5142.53
5882.5
4373.44
3306.3
3152.04
2901.93
2822.91
2835.69
2166.91
835.444
5376.68
5898.7
4293.53
3414.69
3367.34
3151.2
3099.07
3143.79
2223.04
614.183
5455.83
5767.19
4293.94
3742.99
3891.87
3728.21
3631.33
3472.39
2244.02
473.631
5391.6
5554.3
4386.15
4234.48
4601.03
4503.61
4292.39
3738.83
2224.23
731.298
5216.22
5295.63
4555.25
4783.2
5317.91
5240.64
4871.72
3896.14
2171.93
880.786
4970.64
5002.51
4775.38
5208.89
5742.47
5688.15
5171.89
3881.69
1993
688.474
4660.53
4553.73
4473.42
4888.78
5303.21
5364.97
4707.84
3529.8
1802.38
828.47
4303.35
4070.22
3988.43
4346.31
4675.66
4664.96
4068.48
2980.6
1520.1
793.409
751.34
395.029
1874.51
385.069
485.717
2141.32
187.22
274.816
607.879
696.057
633.409
687.915
1710.11
907.306
1046.9
2199.27
579.017
621.486
918.359
815.538
661.392
1263.03
2467.14
2147.58
2337.7
2975.53
1504.64
1133.73
1139.48
877.84
817.239
1965.78
3332.18
3400.16
3691.58
3937.07
2538.63
1733.94
1409.13
1062.16
1095.11
2769.49
4187.76
4516.64
4921.82
4895.83
3504.03
2352.42
1681.04
1242.84
1477.84
3564.59
4950.13
5406.26
5892.32
5679.05
4296.83
2953.74
1942.29
1018.93
1954.6
4356.58
5556.34
5994.78
6464
6113.01
4806.79
3436.55
2136.62
830.278
2492.11
5034.52
6012.33
6305.51
6645.88
6151.69
4934.12
3743.11
2390.69
1358.01
3073.55
5696.66
6418.68
6421.44
6521.58
5867.14
4790.03
3854.71
2586.05
1641.49
3666.16
6295.92
6713.06
6369.3
6163
5407.45
4529.8
3822.67
2728.3
1912.88
4237.62
6807.53
6904.71
6244.68
5810.56
5014.4
4302.59
3774.3
2829.56
2060.51
4759.84
7210.61
7018.23
6148.56
5660.25
4872.5
4231.72
3811.97
2895.56
2007.35
5202.92
7462.08
7030.12
6121.42
5704.65
5006.68
4395.93
3957.15
2978.5
2067.21
5559.15
7652.13
7072.71
6252.39
5987.81
5399.29
4799.11
4161.36
2941.34
1491.93
5807.03
7700.63
7187.64
6594.88
6502.87
5980.04
5288.23
4346.15
2847.57
1094.04
5944.45
7671.69
7360.65
7066.21
7119.09
6613.29
5772.26
4440.38
2717.62
1172.04
5970.14
7518.65
7558.34
7577.33
7714.27
7183.16
6174.22
4447.68
2592.45
1219.55
5898.72
7273.89
7714.33
7949.31
8079.09
7517.49
6342.51
4318.46
2376.12
1108.96
5711.93
6741.27
7149.24
7477.35
7557.77
7095.84
5908.47
3993.47
2146.2
1051.51
5420.19
6066.95
6351.06
6649.25
6715.05
6273.92
5164.01
3479.54
1848.03
939.119
858.093
270.762
564.455
233.76
294.09
614.037
196.942
329.545
1238.67
382.326
789.263
693.021
1183.19
827.683
880.897
1251.65
573.69
587.818
1093.92
483.248
862.072
1521.03
2455.9
2185.59
2217.13
2326.07
1302.47
917.596
1070.57
566.81
1075.02
2514.09
3790.41
3677.01
3716.5
3533.88
2205.79
1361.74
1181.96
695.654
1418.42
3600.53
5052.55
5116.13
5185.44
4750.73
3160.64
1855.08
1356.95
836.573
1873.08
4723.3
6134.6
6346.87
6510.71
5876.2
4096.93
2430.05
1631.42
943.154
2405.26
5733.71
7062.9
7370.27
7543.68
6785.25
4878.81
2960.22
1880.31
1001.47
2987.78
6647.63
7857.11
8153.05
8268.23
7399.46
5431.49
3434.46
2171.92
1237.42
3599.01
7458.89
8509.27
8703.56
8684.5
7678.13
5717.21
3779.64
2434.93
1483.7
4219.41
8186.35
9039.43
9046.9
8802.19
7646.15
5779.91
4006.55
2681.67
1731.12
4827.72
8819.55
9445.79
9235.4
8783.58
7538.57
5789.99
4167.57
2887.17
1922.29
5402.33
9348.57
9743
9348.48
8803.88
7565.55
5889.91
4316.08
3029.58
2003.12
5924.43
9779.73
9968.5
9457.19
8901.38
7726.1
6092.85
4475.97
3143.17
2036.36
6380.12
10109.5
10147.6
9620.42
9121.38
8000.85
6366.41
4594.99
3138.04
1848.15
6759.23
10365.3
10356.2
9882.99
9487.14
8356.48
6662.9
4680.55
3059.29
1605.52
7042.45
10451.5
10636.9
10270.8
9884.62
8706.19
6883.56
4642.03
2862.95
1401.14
7220.51
10399.2
10881.1
10637.1
10232.7
8969.8
7006.35
4545.51
2667.27
1263.46
7290.57
10192
10966.5
10826.9
10361.2
9019.29
6948.5
4339.41
2425.81
1116.7
7212.4
9588.93
10287.1
10235
9728.53
8505.18
6539.43
4051.33
2197.04
1004.97
6979.49
8719.93
9229.14
9199.7
8739.73
7625.4
5836.95
3639.33
1948.03
893.148
839.829
700.829
3981.95
562.239
2994.54
294.711
303.128
1106.68
558.145
214.597
886.738
1260.64
3340.64
1216.39
2526.39
767.393
579.58
948.731
643.683
271.931
1038.73
2056.76
3744.4
2373.41
2932.64
1569.44
974.779
931.841
701.116
328.63
1312.84
3034.24
4636.19
3726.78
3829.86
2589.68
1571.81
1057.57
777.965
399.96
1715.6
4169.29
5751.8
5164.85
4999.09
3712.43
2263.81
1275.61
880.408
481.049
2240.61
5416.44
6911.61
6567.21
6305.58
4944.45
3122.44
1624.49
1035.02
568.316
2856.87
6636.01
8014.55
7846.99
7542.37
6096.01
3943.22
2018.18
1210.21
644.518
3532.3
7775.55
9041.15
8973.24
8625.99
7110.14
4707.41
2471.83
1433.45
762.281
4238.63
8813.01
9957.19
9913.34
9488.7
7869.2
5288.18
2882.14
1667.99
901.651
4953.5
9751.75
10762
10670.2
10105.5
8354.01
5695.32
3239.74
1912
1055.14
5656.66
10583.6
11444
11252.7
10537.6
8678.82
5996.08
3533.31
2132.64
1196.18
6328.99
11300.7
12004
11697.3
10880.9
8974.36
6264.43
3763.6
2300.14
1295.57
6955.64
11910.6
12470.3
12061.4
11181.6
9261.09
6532.67
3951.17
2426.4
1357.77
7522.83
12404.7
12854.5
12376.6
11456.9
9490.79
6721.04
4037.89
2473.16
1339.06
8018.38
12772.9
13202
12681.1
11722.5
9684.76
6869.28
4083.01
2465.09
1265.03
8420.76
12950
13503.3
12949.4
11889.1
9735.77
6847.07
4032.92
2385.95
1160.2
8717.92
12958
13700.2
13115.6
11953.5
9713.07
6782.68
3951.51
2274.65
1058.47
8900.57
12786.6
13686.8
13087.9
11833.6
9526.18
6584.97
3807.67
2129.76
954.363
8929.46
12260.8
13071.6
12480.2
11253.2
9045.25
6285.91
3628.44
1972.83
861.479
8778.74
11389.3
11957.4
11414.8
10268.4
8280.06
5794.66
3384.64
1803.01
773.695
663.789
460.344
1407.44
2952.4
3018.38
292.6
874.074
499.685
257.216
160.171
761.286
1012.69
2233.92
2692.97
2712.45
549.118
788.178
580.967
334.754
183.782
950.389
1712.25
3006.68
2885.05
2714.41
918.414
835.005
638.212
400.995
211.939
1254.58
2631.7
4017.21
3566.81
3151.01
1496.66
1038.98
715.406
465.846
247.022
1682.04
3709.17
5158.81
4538.91
3875.02
2207.95
1356.9
825.263
536.205
288.496
2246.92
5018.96
6445.57
5821.36
4992.49
3181.28
1853.19
995.446
623.796
336.541
2924.86
6369.07
7730.46
7124.18
6204.52
4225.17
2428.28
1212.36
726.747
385.799
3684.59
7689.97
8991.48
8433.6
7443.97
5395.18
3122.99
1486.58
853.497
446.365
4493.61
8937.28
10165.3
9647.81
8589.43
6405.63
3787.17
1782.27
998.277
517.938
5324.16
10094.4
11241
10746
9592.67
7248.33
4396.55
2085.65
1158.31
599.55
6151.78
11147.6
12205.4
11687.2
10419.4
7924.43
4890.27
2366.91
1321.23
683.416
6954.9
12084.9
13048.1
12454.3
11073.4
8461.89
5243.66