/*--------------------------------*- C++ -*----------------------------------*\
  =========                 |
  \\      /  F ield         | OpenFOAM: The Open Source CFD Toolbox
   \\    /   O peration     | Website:  https://openfoam.org
    \\  /    A nd           | Version:  7
     \\/     M anipulation  |
\*---------------------------------------------------------------------------*/
FoamFile
{
    version     2.0;
    format      ascii;
    class       volScalarField;
    location    "1";
    object      ILambda_14_0;
}
// * * * * * * * * * * * * * * * * * * * * * * * * * * * * * * * * * * * * * //

dimensions      [1 0 -3 0 0 0 0];

internalField   nonuniform List<scalar> 
4000
(
182.453
168.751
142.712
142.457
142.482
142.509
142.525
142.517
142.473
142.402
526.402
418.279
144.054
142.943
143.005
143.049
143.035
142.928
142.73
142.497
933.169
629.35
146.455
144.099
144.061
143.964
143.732
143.369
142.931
142.542
1277.02
771.54
150.884
146.271
145.73
145.136
144.417
143.67
142.999
142.533
1500.06
867.785
157.686
149.819
148.109
146.489
145.012
143.812
142.964
142.496
1578.3
925.009
168.105
155.07
151.258
148.031
145.551
143.862
142.887
142.455
1645.91
975.508
180.634
161.96
155.077
149.75
146.085
143.887
142.81
142.421
1680.96
959.678
194.361
170.282
159.416
151.623
146.647
143.93
142.754
142.398
1606.26
879.85
208.293
179.022
163.779
153.44
147.186
143.987
142.718
142.383
1508.07
812.887
222.575
187.63
167.93
155.118
147.684
144.056
142.7
142.374
1422.24
770.765
234.871
194.813
171.262
156.409
148.057
144.111
142.691
142.369
1399.48
766.865
244.933
200.327
173.759
157.344
148.322
144.152
142.687
142.366
1539.67
867.588
252.979
203.592
175.197
157.854
148.459
144.171
142.683
142.364
1755.4
1027.65
260.426
205.729
176.214
158.251
148.583
144.197
142.685
142.364
1976.7
1132.14
265.462
206.891
176.808
158.52
148.673
144.216
142.686
142.364
2222.78
1193.18
267
207.856
177.303
158.754
148.74
144.225
142.686
142.364
2313.6
1206.27
266.513
208.851
177.752
158.923
148.767
144.218
142.684
142.365
2130.73
1143.95
265.332
209.794
178.023
158.894
148.691
144.177
142.676
142.366
1674.15
947.396
264.714
210.631
178.11
158.749
148.62
144.22
142.756
142.411
1058.15
595.475
264.014
210.794
177.765
158.463
148.596
144.374
142.916
142.48
147.06
144.479
142.528
142.55
142.612
142.685
142.754
142.784
142.726
142.556
196.794
182.542
143.681
143.415
143.563
143.71
143.789
143.693
143.359
142.823
576.939
509.457
147.519
145.51
145.46
145.362
145.076
144.515
143.72
142.877
1256.66
991.452
156.77
149.596
148.557
147.521
146.298
144.987
143.743
142.79
1861.7
1208.28
171.17
156.444
153.157
150.186
147.439
145.196
143.589
142.668
2104.3
1316.32
193.645
166.633
159.443
153.402
148.616
145.317
143.408
142.564
2194.46
1433.56
217.564
179.888
167.141
157.078
149.886
145.462
143.27
142.492
2267.75
1348.37
240.629
195.209
175.607
160.981
151.211
145.66
143.19
142.448
2169.28
1083.75
262.549
210.852
183.84
164.642
152.439
145.873
143.151
142.421
1988.83
908.96
283.958
225.496
191.168
167.775
153.472
146.071
143.138
142.406
1854.64
818.813
301.85
236.862
196.633
169.999
154.177
146.207
143.133
142.397
1884.52
845.059
316.534
244.488
200.245
171.416
154.615
146.292
143.132
142.393
2177.62
1178.49
330.026
248.366
201.997
172.086
154.819
146.332
143.131
142.39
2560
1575.39
343.517
250.693
203.126
172.605
155.015
146.383
143.137
142.39
2949.13
1738.43
351.142
251.886
203.808
173.019
155.178
146.422
143.141
142.39
3187.32
1804.18
348.778
253.263
204.594
173.425
155.302
146.435
143.139
142.392
2868.61
1734.82
343.819
255.127
205.487
173.702
155.319
146.399
143.128
142.393
2073.17
1273.57
339.707
257.116
206.089
173.587
155.099
146.281
143.104
142.395
1304.19
777.009
339.229
258.836
206.229
173.187
154.86
146.364
143.337
142.558
906.284
568.315
339.929
259.093
205.395
172.424
154.671
146.656
143.727
142.753
145.812
142.61
142.629
142.711
142.831
142.996
143.2
143.387
143.42
143.109
145.675
144.49
144.039
144.219
144.489
144.817
145.136
145.245
144.869
143.82
156.352
156.099
148.422
148
147.871
147.703
147.378
146.626
145.353
143.702
311.511
301.089
159.597
155.739
153.735
151.73
149.607
147.334
145.135
143.325
1192.79
862.886
184.96
169.167
162.856
157.163
151.999
147.751
144.726
142.985
1876.27
1371.77
237.099
188.971
175.391
163.988
154.734
148.199
144.398
142.755
2276.51
1736.72
285.569
213.939
190.477
171.736
157.742
148.776
144.216
142.618
2583.39
1854.38
325.265
241.33
206.381
179.586
160.732
149.426
144.149
142.541
2567.74
1436.2
357.405
267.76
221.175
186.543
163.336
150.031
144.142
142.499
2388.61
1105.11
386.512
290.839
233.315
191.953
165.298
150.498
144.159
142.475
2244.55
960.208
410.373
307.257
241.469
195.387
166.47
150.77
144.171
142.461
2361.28
1118.59
432.181
316.67
245.904
197.22
167.069
150.911
144.179
142.454
2862.65
1805.74
457.155
320.466
247.338
197.877
167.315
150.983
144.186
142.451
3307.26
2230.78
479.298
322.252
248.206
198.472
167.62
151.083
144.202
142.452
3508.07
2241.33
482.646
323.249
249.069
199.154
167.942
151.163
144.209
142.454
3146.62
1884.85
460.407
325.494
250.621
199.918
168.177
151.167
144.196
142.458
2014.14
1199.81
448.815
329.323
252.575
200.425
168.124
151.037
144.158
142.463
1339.95
820.594
448.993
333.763
254.011
200.169
167.518
150.697
144.082
142.467
1041.22
688.416
454.672
337.373
254.278
199.179
166.789
150.8
144.722
143.05
922.72
648.137
458.975
337.727
252.356
197.269
166.042
151.225
145.582
143.565
142.705
142.765
142.853
142.981
143.178
143.487
143.953
144.57
145.135
145.102
144.961
145.143
145.356
145.635
146.005
146.531
147.241
147.956
148.082
146.764
153.718
153.535
153.086
152.686
152.166
151.592
150.995
150.069
148.295
145.506
179.558
176.727
171.509
167.721
163.636
159.432
155.368
151.314
147.477
144.286
273.7
263.193
206.988
193.806
181.887
170.691
160.795
152.567
146.734
143.501
1059.28
819.705
266.019
231.178
206.555
184.995
167.232
154.155
146.356
143.07
1892.91
1509.88
367.085
276.659
235.025
200.68
174.047
155.966
146.277
142.846
2620.37
2095.38
457.037
323.72
263.344
215.574
180.362
157.719
146.353
142.729
2889.81
1857.5
513.451
365.921
287.767
227.824
185.41
159.153
146.471
142.665
2772.45
1442.01
549.567
399.199
306.118
236.393
188.723
160.088
146.567
142.629
2669.02
1274.25
578.792
420.18
316.653
240.887
190.306
160.517
146.615
142.609
2991.84
1653.3
613.687
429.727
320.517
242.417
190.855
160.685
146.637
142.599
3598.05
2458.84
649.832
431.43
320.62
242.574
191.06
160.807
146.666
142.597
3754.49
2508.14
654.069
431.128
320.837
243.283
191.61
161.024
146.706
142.603
3236.99
2005.61
616.804
431.848
322.474
244.682
192.337
161.193
146.711
142.61
2127.35
1284.61
600.208
436.857
326.051
246.351
192.795
161.142
146.654
142.62
1544.31
982.449
603.102
445.653
330.61
247.554
192.486
160.716
146.523
142.633
1292.32
887.821
616.964
455.484
334.045
247.146
190.931
159.763
146.293
142.643
1205.46
872.403
632.979
462.737
334.571
244.853
188.93
159.618
147.862
144.741
1187.47
878.456
641.895
462.871
330.283
240.333
186.609
159.873
149.499
145.914
143.048
143.142
143.278
143.464
143.738
144.19
144.998
146.396
148.469
150.418
147.319
147.611
147.946
148.282
148.641
149.159
150.092
151.643
153.41
153.666
163.822
163.389
162.836
161.881
160.38
158.5
156.615
154.892
152.522
148.553
208.337
203.864
198.377
191.587
183.418
174.51
165.889
158.067
151.048
145.626
297.754
282.144
262.845
242.034
219.791
197.944
178.412
162.195
150.432
144.228
480.899
421.245
356.175
310.903
266.875
226.723
192.946
166.986
150.545
143.591
1379.27
1055.86
475.881
389.35
318.08
256.729
207.383
171.749
151.01
143.29
2412.74
1978.45
633.703
465.528
365.374
283.028
219.583
175.823
151.539
143.129
3176.45
2375.54
744.183
528.39
402.536
302.641
228.289
178.765
151.962
143.035
3206.93
1888.34
794.391
571.717
426.655
314.376
232.959
180.297
152.214
142.981
3209.67
1729.3
828.236
593.844
437.028
318.433
234.235
180.7
152.305
142.949
3777.33
2459.21
872.511
598.923
437.373
317.804
234.056
180.758
152.343
142.936
4138.34
2849.59
888.712
594.375
434.049
316.616
234.202
181.02
152.437
142.943
3704.93
2328.26
841.977
590.008
433.384
317.927
235.59
181.573
152.537
142.964
2578.83
1570.69
813.651
592.545
437.61
321.332
237.377
181.939
152.503
142.987
1954.3
1265.54
814.797
604.789
446.352
325.548
238.328
181.648
152.285
143.014
1677.69
1173.41
837.396
624.378
456.929
328.626
237.406
180.332
151.868
143.046
1590.95
1173.74
870.804
644.932
464.773
328.219
233.905
177.729
151.179
143.069
1595.21
1206.81
901.769
658.509
465.673
323.168
228.838
176.194
154.119
149.254
1624.26
1234.88
915.634
657.076
456.323
313.031
222.609
175.167
156.59
151.378
143.756
143.901
144.13
144.414
144.76
145.25
146.184
148.28
152.888
161.841
151.998
152.46
153.046
153.532
153.774
153.78
153.952
155.155
158.522
164.621
184.105
182.974
182.018
180.317
177.139
172.386
166.776
161.453
156.781
151.378
267.518
259.703
250.626
238.908
223.775
205.927
187.501
170.783
156.657
146.812
422.928
398.851
369.448
334.46
294.726
253.59
215.202
182.653
158.132
145.205
652.62
596.34
529.759
456.785
380.857
308.622
245.644
194.836
160.145
144.552
1068.89
874.194
708.863
585.622
467.456
361.793
273.446
205.597
162.087
144.214
2227.62
1814.75
907.821
699.322
539.982
404.111
294.715
213.835
163.658
143.99
3354.72
2674.63
1075.51
784.001
590.301
431.376
307.678
218.901
164.669
143.838
3695.29
2400.24
1146.21
832.151
615.772
443.098
312.232
220.525
165.146
143.75
3894.76
2349.76
1178.4
846.829
619.435
442.325
310.866
220.078
165.23
143.702
4473.77
3087.9
1210.83
838.788
610.479
436.354
308.45
219.818
165.285
143.691
4410.29
2952.51
1181.63
822.136
600.868
433.245
308.922
220.769
165.598
143.733
3370.23
2098.43
1120.96
813.772
600.675
437.175
312.895
222.409
165.837
143.8
2601.33
1697.51
1102.8
823.223
612.383
446.277
317.669
223.262
165.592
143.852
2227.24
1562.12
1125.28
851.982
633.211
456.879
319.957
222.205
164.823
143.921
2096.95
1560.47
1178.54
893.406
656.76
464.655
318.107
218.546
163.538
143.996
2107.58
1622.7
1243.73
933.775
673.511
464.807
310.887
212.09
161.502
144.049
2177.4
1697.29
1296.54
956.984
674.466
454.137
298.975
205.965
164.142
157.316
2238.63
1741.25
1313.18
949.761
654.407
432.503
284.029
200.882
167.012
161.526
145.232
145.431
145.855
146.392
146.949
147.392
147.796
148.832
152.636
164.302
161.175
161.836
163.001
164.088
164.547
163.741
161.502
158.374
155.474
151.904
224.079
220.806
219.105
216.927
211.907
202.661
189.584
174.746
160.661
148.317
378.417
364.441
349.491
330.816
305.133
272.317
235.287
199.321
168.273
147.353
643.245
607.288
561.918
505.98
438.747
365.167
292.49
227.672
175.824
146.969
1000.96
923.535
826.456
712.739
587.615
463.569
350.589
254.032
182.11
146.564
1424.29
1269.84
1095.31
910.522
723.08
549.5
398.976
275.201
187.017
146.141
2304.35
1803.6
1331.82
1065.54
823.093
609.772
431.449
289.651
190.576
145.768
3665.89
2943.52
1560.34
1163.98
879.594
639.764
445.907
296.687
192.47
145.509
4331.91
3065.41
1634.35
1202.54
894.75
642.712
444.408
296.127
192.953
145.367
4723.21
3159.18
1646.89
1194.13
879.475
628.3
434.865
292.524
192.772
145.3
5169.02
3617.72
1654.82
1160.63
852.359
611.854
428.45
291.797
193.053
145.315
4578.51
2926.8
1558.51
1126.43
834.267
607.526
431.89
295.243
194.181
145.451
3589.82
2341.33
1495.09
1116.84
839.111
619.537
443.323
300.143
194.739
145.609
3018.91
2093.37
1494.34
1145.05
869.209
642.874
455.583
302.229
193.709
145.686
2768.96
2047.63
1556.51
1208.5
916.336
668.402
461.768
299.345
191.299
145.808
2741.76
2126.41
1664.22
1291.19
965.931
687.108
459.178
290.628
187.646
145.936
2844.29
2260.66
1780.26
1364.9
998.904
689.078
445.299
276.395
182.172
146.055
2977.32
2381.31
1860.9
1399.56
997.623
667.241
419.616
258.891
175.982
146.384
3055.84
2430.34
1870.28
1375.31
955.063
622.973
386.946
243.987
178.468
167.344
148.368
148.504
149.276
150.424
151.809
152.837
152.827
151.177
148.24
145.485
179.212
179.73
181.904
184.566
186.725
186.448
182.25
173.508
161.77
149.097
303.784
293.687
289.289
287.282
281.749
267.774
243.98
212.748
179.36
150.983
582.692
557.666
532.382
503.752
463.616
408.128
339.57
267.095
198.98
151.725
1011.92
963.269
896.22
811.008
703.306
579.015
448.959
324.594
216
151.652
1540.35
1442.16
1307.54
1139.43
943.626
740.735
549.098
374.006
229.353
150.954
2105.36
1914.29
1682.26
1418.22
1134.74
864.139
622.925
410.163
239.361
150.036
2862.91
2368.59
1965.66
1604
1252.3
934.484
662.546
432.032
246.576
149.342
4326.2
3473.33
2203.67
1693.42
1295.26
952.285
667.971
436.923
248.867
148.949
5211.08
3892.53
2259.44
1696.07
1278.14
929.379
647.05
425.472
248.499
148.782
5707.85
4069.27
2229.67
1642.39
1225.94
887.649
619.594
413.431
247.384
148.706
5966.52
4187.03
2181.97
1570.08
1170.8
854.708
607.939
415.097
248.669
148.798
5089.94
3349.12
2042.29
1515.17
1144.4
852.647
621.612
427.604
252.933
149.167
4208.93
2866.79
1975.19
1513.91
1165.41
885.472
652.381
440.925
253.82
149.421
3711.9
2685.08
2011.37
1584.25
1236.18
940.635
682.748
446.463
250.251
149.38
3545.47
2724.08
2147.32
1714.61
1335.65
998.899
699.908
440.593
243.643
149.418
3631.04
2911.03
2347.56
1870.14
1434.24
1041.43
698.854
422.961
234.945
149.555
3842.95
3139.19
2536.11
1993.18
1492.77
1046.94
673.55
393.916
222.43
149.814
4030.78
3302.09
2641.43
2033.47
1480.46
1002.42
622.351
357.547
208.932
150.572
4091
3325.87
2616.03
1965.99
1391.14
914.501
555.712
321.193
197.665
151.684
155.211
154.669
155.88
158.082
161.628
165.351
167.643
165.826
158.62
151.485
214.878
213.527
216.761
222.173
228.785
232.438
229.618
215.758
189.735
158.95
465.258
435.162
419.8
417.776
415.081
397.951
361.032
302.579
226.405
161.95
946.377
905.75
860.814
818.079
757.594
668.682
551.341
412.411
265.702
162.493
1592.77
1541.72
1449.44
1327.27
1162.33
961.554
743.575
517.258
298.814
161.975
2315.05
2209.11
2038.9
1809.79
1518.53
1201.85
895.628
597.349
321.642
159.66
3033.42
2804.84
2512.93
2158.58
1753.22
1352.22
989.415
649.754
338.639
157.358
3892.95
3303.5
2813.92
2339.44
1854.65
1406.64
1019.15
673.079
350.966
156.153
5362.81
4299.25
3017.22
2379.44
1846.89
1382.02
990.37
660.812
354.785
156.271
6290.79
4859.97
3017.54
2309.47
1766.49
1308.03
929.336
621.681
352.035
156.175
6793.09
5047.12
2920.47
2186.75
1657.61
1223.42
871.982
593.293
348.561
156.098
6944.12
4916.74
2806.88
2067.01
1567.51
1170.1
855.132
604.19
353.336
156.472
6014.87
4068.98
2630.66
1993.65
1538.71
1180.15
895.15
642.244
363.206
156.972
5115.84
3593.14
2574.54
2021.07
1599.02
1256.7
967.306
677.478
364.026
157.234
4643.56
3466.05
2683.65
2176.25
1749.07
1374.42
1036.67
692.735
354.9
156.598
4571.32
3628.68
2949.87
2425.37
1943.62
1496.91
1082.4
686.312
341.579
156.666
4811.81
3976.64
3296.41
2699.88
2127.03
1587.59
1092.3
656.648
323.144
156.501
5158.04
4317.89
3571.65
2881.58
2218.42
1598.33
1048.55
602.676
297.629
157.198
5356.8
4489
3673.96
2900.6
2169.11
1505.14
946.407
528.366
270.807
159.197
5322.86
4421.45
3555.17
2736.35
1985.46
1334.24
817.495
456.811
250.045
164.193
170.916
167.373
168.788
171.751
179.324
189.51
200.301
203.775
184.821
171.706
285.684
277.042
280.246
288.078
303.44
316.371
322.137
307.504
245.815
184.487
784.94
710.408
660.007
651.62
660.314
646.384
591.977
489.592
317.226
187.312
1542.2
1496.04
1419.16
1358.68
1275.11
1139.94
944.733
689.893
389.457
185.686
2419.35
2406.89
2299.2
2140.74
1903.25
1595.07
1246.15
857.025
445.769
182.71
3330.3
3247.2
3063.99
2783.32
2373.82
1905.26
1443.84
966.967
477.39
176.668
4197.41
3934.17
3589.24
3147.62
2604.28
2039.92
1526.78
1017.62
490.83
170.576
5204.21
4454.3
3851.9
3259.46
2623.44
2025.8
1503.55
1021.57
506.818
169.3
6665.34
5432.69
3980.72
3192.92
2517.2
1918.62
1409.29
972.002
540.297
172.299
7547.15
6009.51
3892.86
3017.05
2342.43
1768.68
1288.34
887.934
529.387
171.898
8003.47
6163.43
3715.58
2810.49
2163.86
1631.59
1193.3
836.367
520.201
171.734
8106.02
5920.07
3542.49
2641.9
2040.98
1560.6
1174.2
863.365
537.611
173.089
7192.26
4999.44
3335.19
2565.84
2021.26
1597.25
1257.04
946.315
532.554
173.289
6260.88
4513.56
3314.74
2655.86
2160.56
1752.59
1408.58
1029.11
533.851
173.283
5822.62
4464.62
3552.22
2965.41
2449.07
1982.06
1555.28
1076.12
525.234
171.183
5876.14
4810.54
4021.12
3404.45
2801.99
2219.63
1660.31
1077.73
502.973
170.476
6326.3
5382.75
4575.76
3855.26
3122.78
2400.91
1704.84
1039.79
470.12
170.271
6829.29
5844.63
4932.74
4082.65
3241.39
2414.83
1635.97
954.426
424.464
173.043
6917.34
5926.4
4956.91
4011.97
3091.17
2213.55
1432.91
808.368
374.963
178.686
6661.52
5652.93
4642.1
3657.46
2727.87
1888.44
1189.89
671.412
345.996
197.777
208.573
194.438
195.882
195.767
208.819
230.292
264.181
302.083
249.578
242.896
418.322
394.277
398.047
398.78
430.369
457.075
483.218
486.159
361.466
249.552
1290
1189.32
1103.36
1043.74
1088.6
1093.94
1005.96
824.887
480.375
244.989
2307.04
2358.1
2288.54
2185.97
2092.15
1892.86
1585.87
1142.99
593.721
234.965
3418.04
3505.57
3454.96
3278.51
2965.36
2515.92
1989.66
1359.47
653.797
222.761
4531.2
4487.96
4333.85
4042.68
3508.42
2849.14
2189.39
1472.43
680.985
208.838
5571.39
5230.07
4836.02
4340.39
3652.03
2896.18
2208.95
1515.88
735.976
197.204
6770.32
5766.32
5007.58
4298.52
3510.5
2748.93
2088.84
1477.4
777.503
200.06
8107.95
6744.66
5043.32
4083.37
3262.01
2525.05
1899.82
1348.58
777.205
200.22
8901.73
7376.82
4876.12
3788.7
2976.89
2289.04
1710.7
1208.31
732.209
199.576
9293.18
7505.31
4631.4
3502.37
2731.78
2104.97
1582.72
1133.88
712.1
199.457
9343.56
7125.27
4405.3
3297.52
2590.27
2028.68
1569.37
1177.57
750.742
200.225
8588.61
6135.21
4178.79
3240.16
2603.99
2113.09
1719.13
1350.23
809.913
211.502
7672.69
5658.04
4226.38
3451.02
2872.37
2388.56
1985.56
1520.71
822.739
210.927
7296.42
5719.08
4646.52
3988.76
3369.22
2783.66
2246.48
1596.68
758.077
200.111
7468.58
6259.98
5378.13
4682.26
3947.76
3195.88
2455.74
1621.95
718.307
195.647
8095.72
7104.74
6201.97
5350.07
4462.25
3521.67
2580.31
1601.6
688.81
199.109
8746.93
7678.31
6625.53
5586.2
4591.61
3552.01
2493.12
1491.44
624.454
210.193
8540.01
7500.07
6414.66
5303.49
4213.14
3120.71
2098.51
1230.2
554.619
227.07
7917.46
6871.53
5755.29
4626.37
3540.57
2529.95
1658.95
980.004
521.331
294.32
302.207
252.309
258.402
240.495
255.278
284.996
353.968
560.184
378.132
497.847
588.811
586.159
602.457
584.116
605.296
637.311
697.882
747.216
560.557
398.084
1636.53
1758.77
1733.79
1667.63
1700.4
1700.27
1591.5
1295.26
739.924
374.292
3079.81
3325.51
3377.36
3300.77
3163.85
2862.06
2408.63
1726.54
879.469
336.512
4496.36
4688.84
4734.58
4632.42
4257.82
3628.59
2890.45
1999.21
979.388
312.822
5870.99
5826.01
5664.99
5427.73
4801.84
3918.47
3054.55
2118.51
1034.72
279.357
7145.55
6641.73
6120.36
5594.16
4780.53
3809.56
2949.96
2079.36
1014
241.11
8421.87
7241.18
6192.73
5363.13
4428.1
3490
2698.09
1960.78
1047.72
255.08
9511.55
8174.23
6146.51
4990.68
4021.48
3148.62
2424.72
1775.57
1055.12
265.074
10140.9
8711.43
5922.77
4596.94
3640.76
2846.54
2194.5
1608.35
997.757
265.982
10437.3
8778.77
5640.51
4256.2
3351.44
2640.45
2059.9
1532.74
978.12
266.312
10481.5
8416.48
5400.91
4041.17
3214.22
2580.84
2068.04
1598.61
1036.28
265.806
10035.2
7521.39
5203.87
4048.98
3301.32
2735.73
2293.8
1852.38
1131.26
292.845
9368.28
7120.55
5363.77
4431.53
3747.54
3157.79
2688.75
2117.12
1156.61
287.508
9116.22
7300.84
5964.35
5227.42
4501
3750.65
3089.45
2268.61
1127.34
261.763
9361.62
7964.01
6922.11
6193.2
5342.69
4378.05
3426.01
2322.98
1057.99
255.896
10000.7
8965.59
8005.44
7095.31
6056.53
4867.25
3647.5
2312.15
994.452
265.052
10353.6
9486.07
8422.15
7292.09
6130.58
4872.16
3554.51
2188.33
925.246
307.927
9822.19
8932.93
7829.81
6606.34
5344.9
4066.72
2859.07
1763.63
849.668
355.332
8817.51
7845.94
6689.7
5457.31
4246.98
3114.91
2132.56
1345.77
802.276
584.005
555.035
369.578
417.752
332.289
343.215
353.336
307.076
386.489
473.618
566.085
788.889
847.492
931.214
853.69
849.856
850.098
845.613
908.199
829.444
628.03
1788.17
2235.67
2454.21
2429.42
2424.22
2363.6
2147.35
1729.69
1112.37
661.525
3540.81
4142.19
4404.7
4438.15
4291.86
3846.63
3171.86
2294.36
1267.03
551.369
5503.87
5904.43
5929.96
5878.31
5538.13
4706.47
3720.28
2630.42
1379.88
507.117
7260.37
7254.61
6901.55
6643.34
6018.37
4909.13
3823.37
2732.53
1411
407.768
8707.83
8188.11
7344.52
6722.01
5825.12
4632.87
3595.52
2620.61
1365.47
320.983
9823.03
8865.62
7394.06
6370.4
5295.07
4170.52
3264.98
2476.67
1433.2
411.519
10650.8
9569.71
7348.26
5899.26
4764.5
3746.87
2958.23
2284.76
1461.5
426.999
11119
9905.15
7116.99
5444.85
4313.74
3410.87
2727.64
2127.46
1415.93
425.371
11351.7
9916.64
6842.89
5086.55
4007.99
3212.05
2618.96
2078.44
1411.82
425.508
11450.8
9700.09
6652.02
4915.11
3918.38
3199.49
2670.05
2174.4
1473.97
416.5
11333.6
9193.21
6528
5043.18
4132.79
3461.53
2993.33
2530.17
1655.2
518.788
11170.4
9001.03
6802.51
5606.92
4780.62
4037.97
3491.36
2866.51
1701.5
472.503
11168.1
9299.67
7526.43
6581.27
5768.57
4806.05
3972.92
3004.44
1562.83
374.035
11344
9963.85
8580.32
7714.96
6823.64
5610.67
4395.84
3051.71
1453.8
389.472
11469
10664.1
9647.9
8727.39
7619.07
6187.73
4661.82
3039.56
1410.55
432.425
11266.2
10823.4
9943.87
8816.07
7525.86
6068.16
4507.15
2854.9
1366.39
578.095
10504.1
9907.08
8912.31
7605.85
6207.78
4785.85
3451.47
2256.89
1291.5
696.385
9179.51
8356.11
7222.97
5924.3
4638.75
3444.19
2426.39
1632.53
1052.46
627.49
423.012
555.897
849.627
535.417
558.563
659.248
378.18
529.814
709.549
717.393
913.458
1146.15
1355.64
1227.34
1244.68
1215.96
1035.98
1175.04
1241.29
1368.8
2035.28
2710.26
3215.07
3250.65
3236.2
2970.54
2494.89
1966.05
1482.01
1415.49
3680.97
4737.28
5247.13
5352.88
5202.37
4547.3
3606.96
2555.58
1631.41
977.621
5597.13
6707.04
6931.72
6840.02
6437.81
5427.2
4201.42
3006.05
1858.75
952.214
7540.42
8344.12
8036.81
7599.85
6882.07
5598.98
4289.92
3126.26
1811.51
643.627
9203.36
9500.35
8548.89
7661.1
6632.58
5242.31
4005.35
2963.74
1652.82
431.302
10361.5
10214.5
8676.43
7308.51
6061.64
4728.61
3696.3
2939.86
1977.22
874.509
11135.4
10723.2
8705.61
6845.46
5490.48
4279.47
3422.67
2820.04
2036.98
817.231
11596.2
10945.2
8512.09
6387.49
5001.05
3932.99
3232.47
2724.81
2046.99
789.2
11867.7
10979.9
8301.39
6060.19
4707.86
3763.38
3179.99
2738.05
2085.26
791.612
12048.9
10949
8234.98
5997.98
4722.37
3836.08
3296.18
2870.03
2121.62
763.007
12129.4
10847.1
8240.64
6282.41
5106.51
4234.93
3724.61
3340.01
2499.17
1149.43
12163.7
10928.5
8610.15
6991.55
5915.44
4939.85
4253.46
3611.02
2364.44
847.677
12099.3
11205.9
9354.82
8045.63
7012.25
5797.76
4711.59
3614.49
2030.56
562.608
11980.1
11554.8
10233.8
9133.61
8063.59
6607.59
5102.32
3588.19
1946.07
735.797
11850.6
11785.3
10910.3
9920.68
8733.78
7076.97
5291.16
3491.05
1918.06
867.522
11554.5
11583.5
10976.6
9838.92
8460.92
6737.71
4941.87
3167.52
1835.86
1343.83
10585.3
10280.4
9425.38
8058.13
6584.18
5027.56
3604.52
2492.78
1764.99
1601.22
8956.41
8288.98
7204.29
5879.75
4569.85
3366.73
2380.9
1726.81
1363.6
1226.79
555.506
615.958
821.183
948.051
891.76
1655.84
421.955
695.835
1333.86
873.655
1136.09
1401.33
1644.53
1605.22
1578.52
1727.86
1051.94
1148.62
1236.96
1223.27
2365.13
3220.22
3868.83
3854.71
3641.77
3208.26
2347.94
1630.63
1110.07
694.746
3986.66
5284.34
5931.02
5883.43
5484.3
4584.05
3376.77
2224.12
1635.71
1626.05
5701.19
7223.58
7631.29
7359.95
6715.72
5503.01
4057.14
2762.53
2096.1
2036.71
7269.87
8798.37
8804.47
8169.63
7255.41
5803.24
4253.04
2945.52
1892.52
945.034
8595.81
9955.94
9425.65
8340.11
7139.22
5561.61
4067.85
2901.79
1683.23
541.495
9634.09
10693.5
9693.33
8144.37
6708.79
5132.1
3883.55
3151.5
2549.58
2386.76
10459.9
11223.8
9814.73
7825.62
6213.05
4715.98
3692.07
3170.83
2652.84
1657.87
11056.2
11529.9
9760.29
7445.56
5731.02
4362.59
3558.02
3183.27
2763.09
1599.29
11443.7
11691.7
9690.73
7216.73
5486.92
4231.05
3572.85
3288.26
2885.76
1640.85
11672.1
11807.9
9757.84
7320.94
5653.89
4426.95
3770.16
3466.9
2907.98
1559.51
11778.8
11892.5
9940.52
7742.75
6198.76
4958.88
4249.59
3964.11
3493.7
2989.48
11875.7
12087.3
10354.9
8484.31
7060.67
5716.54
4707.44
3976.85
2855.4
1450.36
11967.9
12307.5
10959.4
9415.36
8054.76
6492.4
5019.73
3685.7
2205.14
775.489
12000
12456.5
11481.8
10175.5
8786.05
7018.55
5186.43
3496.82
2249.92
1742.68
11826.7
12327.7
11668.7
10466.9
8983.53
7061.56
5071.27
3291.47
2282.33
2025.39
11327.5
11774.4
11343.7
10035.9
8378.45
6464.16
4486.89
2750.79
1694.08
1024.11
10053.4
10006.9
9217.42
7785.15
6183.6
4718.25
3103.37
2069.92
1477.02
1324.88
8153.7
7634.98
6592.43
5271.62
3979.46
2862.73
1894.33
1333.28
1070.8
1002.61
947.851
866.796
1421.17
538.201
675.247
1034.48
335.751
394.148
469.195
538.711
1429.62
1776.32
1994.5
1630.2
1486.3
1363.32
955.31
735.56
656.199
708.539
2601.68
3666.41
4254.64
3912.84
3399.91
2730.36
1893.3
1070.52
794.164
825.436
4076.59
5638.58
6254.39
5791.42
4986.67
3887.33
2641.47
1464.2
1100.1
1177.18
5573.31
7405.88
7793.13
7131.11
6115.36
4717.27
3174.14
1827.14
1367.95
1422.31
6922.06
8795.41
8861.31
7994.09
6849.03
5268.18
3554.55
2099.38
1352.44
748.382
8058.27
9850.04
9524.31
8423.22
7129.06
5456.61
3712.5
2260.65
1361.09
578.865
8960.69
10559.8
9929.7
8570.07
7092.52
5355.18
3710.63
2626.56
2130.92
2268.67
9710.14
11159.6
10252.9
8570.55
6850.77
5048.2
3612.32
2905.61
2665.82
2898.62
10312
11602.4
10431.4
8448.54
6477.51
4698.43
3533.58
3115.54
3114.88
3524.07
10780.6
11924.9
10568.2
8414.41
6347.68
4616.88
3595.45
3305.77
3368.98
3742.61
11136.7
12177.3
10765.7
8634.12
6670.53
4949.73
3838.46
3450.59
3330.8
3417.88
11393.4
12363.1
10999.8
9039.82
7237.19
5538.8
4228.07
3557.15
3247.65
3253.38
11589.1
12596.5
11340.2
9550.96
7860.89
6095.98
4498.71
3284.11
2426.55
1460.9
11665.3
12703
11679
10038.3
8348.42
6414.52
4506.72
2902.07
1830.08
824.079
11535.1
12601.2
11804.5
10216.8
8424.01
6346.89
4281.03
2544.32
1671.49
1360.93
11097.7
12100.3
11542
9963.86
8072.42
5959.28
3915.79
2212.51
1532.31
1389.61
10295.9
11138.1
10720.6
9119.06
7198.8
5196.63
3313.49
1773.95
1209.75
1073.36
8794.61
9024.27
8232.36
6753.67
5091.85
3614.12
2287.96
1311
956.443
897.693
6806.97
6456.7
5484.28
4229.44
3024.25
2033.63
1274.3
806.428
652.527
625.852
970.746
904.187
1152.96
763.281
756.198
324.604
406.41
520.188
709.003
254.761
1497.37
1991.67
2193.24
1790.23
1437.28
975.587
797.15
555.665
436.543
288.706
2482.09
3656.26
4074.33
3515.37
2797.53
1956.42
1233.97
577.049
365.564
316.291
3637
5273.33
5673.85
4934.9
3955.31
2793.95
1662.09
721.613
449.25
428.024
4797
6704.53
6903.33
6007.22
4838.95
3441.92
2023.46
872.703
546.982
521.225
5930.89
7979.77
7805.83
6802.18
5582.35
4025.94
2433.1
1156.34
793.325
756.445
6940.44
8959.12
8526.53
7413.32
6075.33
4435.74
2717.13
1375.48
983.908
938.137
7840.66
9799.93
9162.69
7896.62
6435.86
4723.44
2937.37
1625.03
1241.33
1242.42
8613.21
10479.4
9668.83
8249.7
6638.23
4816.55
3014.48
1783.91
1423.37
1446.71
9265.76
11047.6
10085.3
8491.52
6678.98
4742.53
2999.67
1897.17
1580.64
1607.99
9793.42
11497.6
10417.7
8695.53
6763.2
4770.08
3045.52
1977.38
1661.54
1664.56
10186.3
11824.5
10680
8919.3
6998.45
5005.11
3192.28
2012.1
1636.17
1593.77
10454.9
12062.1
10902.4
9140.47
7246.71
5251.11
3335.45
2006.3
1567.52
1469.08
10549.8
12114.4
10974
9242.48
7358.89
5311.31
3313.51
1849.62
1357.67
1183.82
10459.4
12003.6
10918.8
9193.04
7317.18
5194.61
3177.59
1667.36
1168.11
984.236
10056.1
11488.6
10648.3
8889.58
6918.54
4790.29
2813.72
1344.36
872.785
712.141
9349.52
10626.3
9993.65
8229.54
6264.75
4225.02
2400.7
1082.08
679.121
564.071
8332.54
9356.7
8839.87
7150.92
5291.26
3456.46
1892.26
798.092
487.873
411.034
6852.68
7270.69
6543.75
5110.74
3612.85
2331.96
1300.93
589.786
384.198
342.832
5088.32
4908.11
4090.99
3005.41
2014.53
1236.53
693.961
378.439
293.285
273.294
1009.84
1390.68
2822.24
1439.44
2044.82
365.461
472.588
647.984
234.871
159.719
1411.92
2094.29
2570.72
1942.68
1622.73
732.098
548.913
364.681
189.399
167.677
1986.99
3005.5
3354.05
2717.92
1997.18
1130.76
588.827
267.356
177.868
174.33
2710.08
4047.08
4331.12
3536.29
2586.13
1570.07
766.226
274.024
189.887
194.882
3509.56
5108.61
5250.32
4303.97
3169.82
1952.75
929.382
300.861
206.036
213.459
4431.58
6277.47
6195.34
5141.98
3897.26
2503.12
1260.63
406.128
248.676
254.194
5353.36
7326.74
7022.41
5853.81
4496.61
2939.29
1496.67
498.46
291.54
290.368
6222.85
8260.46
7807.4
6529.74
5062.82
3395.14
1771.02
651.548
369.282
350.281
6987.15
9041.89
8471.55
7083.32
5480.95
3669.13
1920.74
751.046
433.403
396.821
7627.86
9684.11
9027.66
7535.67
5773.78
3821.12
2019.6
833.551
496.144
438.934
8129.31
10170.7
9449.63
7868.73
5990.79
3941.7
2088.63
875.475
523.438
453.295
8469.77
10472.7
9700.11
8051.23
6130.82
4042.05
2116.6
860.552
500.439
431.946
8646.78
10599.8
9798.25
8103.19
6166.04
4068.73
2109.63
818.85
460.475
398.596
8605.52
10459.9
9632.59
7896.24
5938.74
3817.23
1918.29
683.133
384.302
339.73
8330.09
10045.7
9269.75
7511.32
5545.66
3472.76
1709.93
573.519
327.63
297.417
7714.11
9177.75
8532.54
6765.44
4821.72
2883.7
1335.55
432.029
267.864
248.569
6864.72
8062.47
7545.84
5852.87
4061.19
2365.2
1068.57
350.319
231.51
220.343
5821.46
6703.37
6257.01
4755.45
3211.89
1801.83
772.088
274.314
200.135
192.389
4631.85
5073.66
4556.82
3355.01
2237.22
1242.1
577.671
237.993
182.883
178.917
3356.25
3321.52
2745.69
1923.74
1226.58
681.762
352.865
200.817
168.322
164.369
644.925
754.781
1117.76
2029.17
1482.57
370.064
524.587
214.36
153.028
143.841
917.316
1328.86
1560.86
1527.66
1017.91
457.274
326.693
176.112
148.29
145.321
1228.99
1800.05
1929.79
1519.47
979.356
495.173
267.246
164.969
147.704
146.742
1689.44
2539.18
2692.62
2017.47
1310.55
663.412
298.121
169.898
150.347
150.289
2221.26
3318.03
3456.59
2576.52
1663.68
827.228
343.374
178.16
153.819
153.912
2953
4435.32
4518.4
3515.32
2385.37
1236.07
488.363
201.256
160.806
160.836
3711.49
5455.94
5454.58
4292.13
2996.03
1598.49
622.39
224.085
168.26
167.48
4445.22
6395.82
6382.21
5138.29
3702.72
2165.29
869.925
264.923
179.862
177.469
5075.04
7151.43
7119.33
5824.11
4260
2528.91
1059.92
299.944
190.217
185.399
5580.18
7736.24
7703.24
6400.37
4718.12
2819.8
1233.8
336.864
199.813
192.106
5949.4
8141.56
8102.06
6764.23
4987.09
2978.42
1307.62
352.714
204.299
194.396
6164.03
8335.5
8256.3
6824.18
4989.58
2951.9