/*--------------------------------*- C++ -*----------------------------------*\
  =========                 |
  \\      /  F ield         | OpenFOAM: The Open Source CFD Toolbox
   \\    /   O peration     | Website:  https://openfoam.org
    \\  /    A nd           | Version:  7
     \\/     M anipulation  |
\*---------------------------------------------------------------------------*/
FoamFile
{
    version     2.0;
    format      ascii;
    class       volScalarField;
    location    "1";
    object      ILambda_5_0;
}
// * * * * * * * * * * * * * * * * * * * * * * * * * * * * * * * * * * * * * //

dimensions      [1 0 -3 0 0 0 0];

internalField   nonuniform List<scalar> 
4000
(
460.282
328.941
185.233
143.091
142.753
142.685
142.615
142.59
142.556
142.481
808.083
585.86
230.554
143.731
143.133
142.999
142.773
142.675
142.597
142.486
893.583
614.419
257.647
144.728
143.841
143.572
142.924
142.718
142.606
142.481
793.544
551.458
269.555
146.42
145.016
143.986
142.973
142.733
142.607
142.475
661.939
533.512
267.817
148.869
146.991
143.96
142.995
142.744
142.607
142.469
568.595
519.629
263.119
152.461
148.353
143.851
143.01
142.755
142.606
142.464
556.421
507.498
257.37
156.097
148.317
143.77
143.025
142.765
142.605
142.459
541.473
493.938
259.714
161.744
147.913
143.757
143.038
142.773
142.604
142.456
515.284
492.666
268.54
164.072
147.566
143.784
143.046
142.779
142.603
142.454
520.098
498.43
282.271
163.738
147.434
143.806
143.047
142.781
142.603
142.454
521.493
494.52
276.411
163.393
147.515
143.795
143.044
142.78
142.604
142.454
530.282
489.561
258.784
162.234
147.776
143.764
143.036
142.775
142.605
142.456
569.242
500.668
254.454
157.827
148.107
143.755
143.022
142.767
142.606
142.459
592.35
519.737
257.069
151.781
148.165
143.799
143.003
142.757
142.608
142.463
637.268
531.967
263.988
148.643
147.412
143.874
142.98
142.743
142.608
142.469
752.912
544.419
264.648
145.482
145.39
143.878
142.948
142.727
142.607
142.474
835.445
557.042
257.45
143.97
143.525
143.653
142.887
142.701
142.601
142.479
784.167
565.345
233.521
143.129
142.807
143.039
142.766
142.654
142.584
142.48
515.984
429.574
197.245
142.748
142.476
142.534
142.564
142.563
142.542
142.471
183.053
173.525
156.333
142.493
142.381
142.394
142.416
142.441
142.455
142.433
593.732
356.262
168.709
143.273
142.908
142.738
142.612
142.54
142.474
142.402
993.017
603.505
185.684
143.882
143.254
142.939
142.696
142.576
142.487
142.403
1524.07
1012.65
197.391
144.777
143.749
143.183
142.757
142.591
142.488
142.401
1875.14
1279.85
204.828
146.018
144.366
143.329
142.776
142.596
142.487
142.398
1720.88
1125.35
205.894
147.511
145.063
143.322
142.786
142.601
142.486
142.396
1376.46
975.452
203.702
149.2
145.472
143.283
142.794
142.605
142.485
142.394
1149.24
874.381
200.956
150.817
145.451
143.258
142.802
142.608
142.484
142.392
1030.35
664.424
201.578
152.638
145.307
143.263
142.809
142.611
142.483
142.391
954.653
536.957
204.755
153.399
145.197
143.278
142.812
142.613
142.483
142.39
940.712
540.147
207.661
153.349
145.184
143.292
142.812
142.614
142.483
142.39
983.831
558.784
203.928
152.886
145.226
143.279
142.809
142.613
142.484
142.391
1092.79
623.945
198
151.703
145.3
143.254
142.802
142.611
142.485
142.392
1248.1
818.576
197.249
149.571
145.353
143.247
142.791
142.607
142.486
142.393
1414.99
1010.89
199.622
147.249
145.194
143.252
142.776
142.602
142.487
142.395
1652.85
1075.72
202.037
145.65
144.651
143.249
142.756
142.593
142.487
142.397
1820.34
1174.53
199.37
144.139
143.77
143.18
142.725
142.58
142.485
142.399
1545.64
1125.41
190.393
143.271
143.031
142.989
142.672
142.558
142.479
142.399
857.329
662.553
175.116
142.76
142.639
142.685
142.585
142.518
142.463
142.397
338.818
270.989
159.298
142.513
142.433
142.458
142.469
142.457
142.432
142.388
161.326
154.519
146.267
142.393
142.365
142.372
142.381
142.388
142.385
142.369
573.114
310.865
157.092
143.279
142.902
142.702
142.573
142.487
142.42
142.37
879.218
460.495
164.099
143.753
143.147
142.833
142.64
142.512
142.425
142.37
1298.15
699.736
170.507
144.393
143.445
142.97
142.695
142.518
142.425
142.369
1833.92
1057.7
178.549
145.21
143.766
143.08
142.712
142.52
142.425
142.368
2481.34
1520.28
191.022
146.157
144.077
143.148
142.716
142.522
142.424
142.367
2248.55
1581.16
206.962
147.102
144.286
143.164
142.72
142.525
142.424
142.366
1815.06
1410.77
195.937
147.822
144.4
143.178
142.731
142.528
142.424
142.366
1484.1
1019.11
182.779
148.468
144.476
143.206
142.74
142.531
142.424
142.365
1258.67
559.409
177.2
148.906
144.626
143.214
142.747
142.534
142.424
142.365
1264.04
500.18
177.362
149.172
144.681
143.194
142.748
142.535
142.425
142.365
1400.56
596.8
176.642
148.652
144.647
143.19
142.744
142.534
142.425
142.366
1667.72
879.074
178.24
147.489
144.515
143.192
142.733
142.531
142.426
142.366
2020.35
1408.44
188.041
146.394
144.277
143.162
142.719
142.527
142.426
142.367
2253.38
1619.79
199.608
145.379
144.025
143.119
142.702
142.521
142.426
142.367
2354.04
1541.39
198.144
144.445
143.613
143.065
142.681
142.513
142.425
142.368
1951.93
1213.32
173.382
143.488
143.147
142.951
142.655
142.502
142.422
142.368
904.393
615.47
161.45
142.89
142.764
142.751
142.609
142.484
142.416
142.368
435.335
311.422
153.514
142.569
142.531
142.553
142.531
142.456
142.404
142.365
216.243
181.897
147.464
142.421
142.403
142.419
142.431
142.414
142.385
142.36
152.379
146.187
143.439
142.361
142.355
142.359
142.364
142.366
142.36
142.351
491.966
258.702
150.534
143.207
142.877
142.71
142.622
142.59
142.617
142.766
710.238
346.732
153.92
143.556
143.064
142.829
142.705
142.621
142.576
142.74
1014.42
485.801
157.932
143.999
143.284
142.967
142.794
142.59
142.422
142.36
1424.69
704.119
164.209
144.547
143.533
143.142
142.908
142.588
142.423
142.36
1961.75
1056.73
175.516
145.214
143.802
143.326
142.96
142.587
142.424
142.359
2553.24
1600.19
194.608
145.98
144.08
143.508
142.993
142.592
142.427
142.359
2420.81
1761.46
217.408
146.818
144.32
143.584
143.025
142.602
142.429
142.359
2008.35
1471.77
201.081
147.245
144.575
143.648
143.072
142.611
142.432
142.359
1554.7
718.359
177.218
147.498
144.849
143.668
143.102
142.618
142.434
142.359
1523.1
545.357
169.748
147.837
145.15
143.674
143.102
142.621
142.435
142.359
1785.41
741.214
174.566
147.28
144.967
143.653
143.092
142.618
142.435
142.359
2240.39
1255.72
190.691
146.228
144.458
143.604
143.069
142.612
142.433
142.36
2636.96
1910.1
211.878
145.609
144.121
143.536
143.02
142.603
142.432
142.36
2502.9
1722.03
207.892
144.782
143.757
143.422
142.97
142.595
142.432
142.362
1934.4
1183.22
171.024
143.743
143.356
143.266
142.936
142.592
142.437
142.366
929.245
539.703
155.016
143.073
142.96
142.995
142.881
142.6
142.451
142.378
451.41
295.519
149.153
142.683
142.68
142.753
142.784
142.618
142.489
142.417
252.888
194.801
146.023
142.487
142.503
142.559
142.631
142.628
142.567
142.535
168.615
154.323
143.885
142.392
142.403
142.438
142.501
142.584
142.674
142.902
145.593
143.53
142.651
142.353
142.355
142.365
142.389
142.444
142.563
142.865
402.506
218.072
147.163
143.227
143.008
142.957
143.039
143.301
143.849
144.789
553.218
270.276
149.117
143.524
143.191
143.077
143.087
143.252
143.681
144.989
767.738
353.439
151.878
143.914
143.448
143.272
143.168
143.012
142.613
142.387
1067.88
487.281
156.467
144.42
143.809
143.634
143.518
143.142
142.612
142.388
1479.44
706.929
164.545
145.068
144.238
144.065
143.843
143.206
142.616
142.385
2019.03
1068.37
178.416
145.882
144.743
144.53
144.076
143.259
142.624
142.383
2628.28
1631.54
201.016
146.861
145.218
144.903
144.26
143.324
142.635
142.383
2476.47
1767.82
222.676
147.978
145.761
145.057
144.327
143.388
142.644
142.382
2016.7
1196.42
197.313
148.274
146.179
145.233
144.346
143.448
142.654
142.383
1803.66
679.765
176.425
148.493
146.629
145.464
144.323
143.47
142.658
142.383
2170.22
984.813
186.422
147.841
146.245
145.329
144.307
143.453
142.656
142.384
2707.01
1744.45
213.848
146.775
145.381
144.948
144.284
143.404
142.652
142.384
2684.36
1888.31
217.615
145.926
144.85
144.717
144.213
143.342
142.65
142.388
1974.88
1199.04
174.957
144.454
144.175
144.42
144.095
143.308
142.665
142.399
917.489
501.13
153.46
143.567
143.618
143.908
143.884
143.309
142.714
142.431
450.998
271.718
147.13
143.003
143.131
143.427
143.66
143.369
142.846
142.524
260.398
191.228
144.808
142.691
142.827
143.069
143.384
143.471
143.142
142.794
182.342
158.595
143.599
142.521
142.624
142.82
143.139
143.553
143.699
143.588
151.398
145.981
142.832
142.419
142.485
142.627
142.913
143.462
144.382
145.935
143.388
142.709
142.435
142.36
142.381
142.431
142.553
142.845
143.543
145.157
327.003
190.712
145.758
143.664
143.722
144.106
144.981
146.726
149.92
154.983
430.224
222.445
147.141
143.986
143.89
144.057
144.576
145.862
148.986
156.44
580.95
273.866
149.33
144.517
144.304
144.282
144.265
144.097
143.477
142.566
799.624
358.447
153.04
145.304
145.073
145.148
145.236
144.886
143.617
142.562
1114.1
499.826
159.421
146.329
145.98
146.181
146.285
145.441
143.681
142.537
1559.12
738.956
170.49
147.503
147.01
147.265
147.188
145.796
143.744
142.514
2171.75
1147.84
190.189
148.693
147.801
148.139
147.65
146.069
143.819
142.501
2689.78
1756.65
224.749
150.127
148.423
148.366
147.796
146.254
143.875
142.488
2414.21
1550.2
215.994
151.046
149.111
148.64
147.904
146.32
143.925
142.481
2099.64
883.994
190.652
151.155
149.57
148.941
147.988
146.288
143.972
142.483
2431.19
1197.15
200.58
150.265
148.973
148.675
147.914
146.275
143.958
142.486
2761.57
1888.83
223.673
148.802
147.785
148.066
147.714
146.266
143.912
142.497
2173.22
1449.53
202.887
147.128
146.865
147.647
147.523
146.175
143.912
142.529
1017.86
528.359
156.625
145.447
145.961
147.047
147.256
146.069
143.984
142.603
444.228
259.727
147.608
144.41
144.968
145.893
146.724
146.067
144.235
142.789
259.128
184.689
144.798
143.615
144.127
145.008
146.055
146.268
144.919
143.307
185.994
158.176
143.625
143.148
143.668
144.475
145.638
146.708
146.427
144.766
156.484
147.507
142.998
142.867
143.308
144.105
145.437
147.375
149.219
148.971
145.425
143.504
142.609
142.619
142.925
143.573
144.912
147.582
152.629
161.249
142.682
142.467
142.398
142.418
142.521
142.77
143.37
144.815
148.286
156.538
271.069
174.065
145.954
144.945
145.323
146.144
147.705
150.687
156.524
168.468
342.596
194.325
147.394
145.621
145.746
146.061
146.517
147.155
147.845
147.057
450.128
227.801
149.784
146.888
146.986
147.251
147.374
147.111
145.917
143.116
611.874
283.963
153.657
148.75
148.941
149.564
150.063
149.716
147.002
143.08
854.58
379.553
159.944
151.073
151.261
152.202
153.039
152.064
147.608
142.986
1216.53
544.332
169.629
152.873
153.107
154.644
155.712
153.596
147.971
142.873
1748.46
833.284
186.729
154.02
154.306
156.176
157.001
154.554
148.278
142.814
2470.47
1332.19
217.829
155.269
154.662
156.45
157.236
154.917
148.453
142.757
2651.85
1685.56
251.141
156.555
155.114
156.228
156.999
155.291
148.666
142.725
2336.87
1155.82
216.379
156.639
155.608
156.373
156.877
155.401
148.697
142.719
2485.07
1344.78
223.794
155.449
154.851
156.079
156.78
155.282
148.675
142.734
2430.95
1650.22
239.607
153.461
153.385
155.52
156.688
154.955
148.602
142.779
1405.48
773.009
178.181
151.122
152.273
155.058
156.488
154.487
148.442
142.872
490.679
274.9
152.789
149.236
150.77
153.457
155.45
154.046
148.462
143.043
258.349
183.371
147.795
147.584
148.627
150.884
153.41
153.129
148.599
143.374
186.762
157.743
145.445
145.79
146.798
148.551
150.877
152.126
149.187
144.119
158.679
148.15
143.862
144.318
145.359
147.019
149.178
151.173
150.402
145.704
147.476
144.323
143.185
143.594
144.507
146.012
148.213
150.89
152.502
149.179
143.465
142.858
142.726
143.011
143.657
144.889
147.082
150.599
155.049
156.273
142.472
142.416
142.438
142.543
142.797
143.374
144.669
147.546
153.854
167.376
234.305
166.374
148.809
148.467
149.013
149.716
150.556
151.585
152.406
151.173
286.368
181.347
151.739
150.906
151.423
151.869
151.879
151.489
150.085
145.349
367.199
206.283
156.275
154.782
155.778
156.801
156.865
156.067
152.558
144.102
492.805
248.282
162.936
160.046
161.808
164.045
164.922
164.113
156.287
143.997
686.113
318.173
170.721
165.07
167.017
170.467
173.283
171.556
158.609
143.767
988.738
439.957
179.865
167.036
169.227
174.322
179.9
177.075
160.924
143.666
1461.6
660.969
194.847
167.301
169.095
175.255
181.941
179.861
162.43
143.55
2170.98
1064.92
226.565
166.989
168.45
173.985
180.47
180.773
162.899
143.404
2762.82
1683.19
279.844
167.801
167.815
172.462
178.176
180.13
161.846
143.195
2530.25
1415.02
248.953
167.754
168.081
172.061
176.443
178.241
161.629
143.194
2438.68
1435.27
250.701
166.616
167.659
172.414
177.292
178.855
161.806
143.238
2006.57
1334.43
251.196
164.648
166.583
172.723
179.247
180.629
162.316
143.36
814.032
407.53
174.593
162.183
165.448
172.175
179.4
179.494
162.93
143.658
289.617
200.03
159.539
160.174
162.799
169.372
177.063
176.517
161.641
143.879
193.936
165.516
155.466
156.735
159.191
164.087
170.816
171.861
159.911
144.223
164.558
153.864
150.823
152.221
154.384
157.927
162.238
165.428
158.096
144.837
151.889
147.604
146.508
147.247
149.289
152.176
155.15
158.779
156.701
145.991
145.221
144.069
143.968
144.571
145.87
147.9
150.399
153.393
154.57
147.666
143.047
142.911
143.018
143.39
144.173
145.514
147.533
150.227
152.553
149.787
142.459
142.445
142.491
142.628
142.919
143.488
144.529
146.267
148.647
149.893
219.233
171.004
159.673
159.781
160.393
160.773
160.28
158.287
154.454
147.042
265.558
188.889
169.016
168.936
169.937
171.107
171.24
168.713
162.551
146.191
340.348
218.155
182.883
182.353
184.297
187.469
190.085
187.018
172.066
145.624
448.953
261.918
201.738
200.262
203.215
208.87
214.372
210.368
182.754
145.584
607.207
314.225
209.362
208.595
214.154
222.511
233.43
229.653
190.548
145.49
874.192
407.6
211.316
205.986
213.424
225.877
244.177
243.014
197.492
144.998
1331.47
599.377
222.345
199.729
205.419
221.588
245.141
250.785
204.534
145.019
2077.17
982.368
252.553
194.192
198.724
212.331
234.537
246.408
204.108
144.752
2834.83
1645.08
313.133
194.21
193.642
204.098
218.922
231.5
193.964
144.372
2652.3
1602.48
290.128
192.695
194.071
203.171
213.95
221.829
193.397
144.377
2376.28
1485.67
287.262
194.005
196.672
207.758
220.278
227.413
194.682
144.457
1746.39
1112.73
275.483
195.873
199.502
213.936
232.288
242.52
198.387
144.669
591.851
307.938
196.849
193.433
201.283
217.093
240.872
249.968
206.252
145.149
236.106
197.792
186.975
192.885
198.332
212.651
235.028
240.942
200.057
145.379
191.065
182.533
182.09
187.761
193.07
202.052
219.445
224.344
190.562
145.58
179.079
176.21
175.223
176.992
180.092
186.847
199.312
206.126
183.361
146.336
168.299
164.281
161.386
160.787
162.418
168.002
176.992
184.505
174.782
146.689
152.278
148.37
146.854
147.255
148.604
151.986
157.938
164.23
164.317
147.19
143.835
143.735
143.723
144.036
144.651
146.065
148.459
151.869
155.294
147.361
142.555
142.523
142.537
142.656
142.891
143.319
144.012
145.012
146.214
145.436
249.582
208.022
197.76
198.586
198.483
197.348
192.272
181.207
163.09
147.002
326.286
252.478
230.021
232.521
233.178
235.493
233.558
221.854
186.47
148.126
455.922
327.708
276.762
281.76
282.997
291.602
297.356
282.761
215.851
148.023
545.594
390.754
332.856
340.449
342.293
353.809
361.436
337.759
244.392
148.379
637.841
409.111
326.966
338.702
350.616
368.357
392.456
376.974
266.571
148.783
869.91
452.108
294.689
307.009
325.592
352.502
395.794
393.099
274.294
147.224
1342.38
629.98
284.01
266.58
286.15
320.3
373.62
385.342
268.922
146.579
2153.9
1022.43
308.673
249.67
257.344
287.82
334.245
368.709
277.003
147.355
2956.77
1731.4
375.385
243.381
246.598
267.431
298.757
336.421
299.436
150.241
2764
1770.78
355.473
243.074
247.817
265.689
287.679
309.68
289.971
149.08
2392.24
1583.88
355.34
252.539
259.773
280.984
305.042
323.295
290.884
149.188
1709.75
1108.95
346.094
266.126
275.888
303.183
336.645
359.321
292.463
149.452
607.407
345.232
270.116
276.315
289.806
321.593
365.234
379.098
265.698
146.406
282.596
269.405
272.112
286.847
303.558
329.901
376.193
378.973
264.026
146.987
262.402
269.812
277.772
296.87
305.386
321.88
358.513
363.39
265.334
148.307
275.748
281.448
269.118
275.294
278.273
291.368
315.864
320.636
245.972
149.421
274.983
246.819
222.28
226.103
224.903
238.417
257.195
264.667
216.27
148.472
218.228
182.91
159.046
162.122
163.401
173.871
191.774
208.073
186.747
148.128
149.377
146.778
145.707
146.563
146.791
149.175
154.083
162.498
161.317
147.364
142.934
142.709
142.613
142.735
142.896
143.249
143.849
144.813
145.554
144.677
404.324
345.485
326.661
323.696
325.823
312.061
282.349
240.057
182.143
148.149
607.398
487.16
442.181
430.607
452.221
446.885
411.148
356.317
232.714
150.202
902.453
711.848
611.193
567.448
605.999
628.897
595.428
506.304
292.544
150.473
809.616
740.322
701.877
698.362
716.23
723.73
708.876
596.606
344.786
151.791
797.254
630.473
614.393
652.958
673.499
695.219
713.736
629.148
356.692
149.584
1004.95
591.164
477.48
536.683
571.208
612.206
672.676
638.545
376.071
149.76
1537.73
754.243
402.045
404.331
446.345
505.825
597.607
633.8
435.735
153.719
2475.65
1198.15
421.362
346.199
364.116
415.711
493.962
565.973
445.379
155.689
3216.85
2013.89
513.686
338.592
344.601
373.526
418.202
470.568
425.195
152.594
3026.64
2176.14
514.536
347.699
351.126
375.037
403.386
428.435
396.616
151.494
2597.94
1925.92
524.22
378.223
386.846
415.111
445.169
461.906
406.513
152.019
1898.19
1304.06
517.446
420.97
438.213
474.965
518.542
541.332
435.55
153.546
890.25
518.416
451.905
468.836
491.797
535.597
594.417
613.971
433.257
155.104
477.434
463.017
492.571
539.149
565.153
592.412
642.935
623.816
398.38
151.642
468.373
500.323
547.383
600.427
610.434
619.293
643.338
585.676
337.275
148.979
514.433
545.87
554.725
561.804
575.748
589.204
602.985
543.295
325.112
150.398
545.632
511.753
453.218
428.152
459.925
485.464
500.83
460.595
295.644
151.73
491.499
349.852
269.458
228.058
272.012
312.153
326.684
332.428
229.657
149.334
184.668
162.519
160.171
158.901
171.687
175.534
181.916
201.303
177.543
148.196
144.368
143.36
143.148
143.188
143.885
144.195
144.896
146.524
146.661
144.95
743.065
685.035
658.073
645.452
628.311
577.529
495.177
389.883
306.698
385.616
1105.47
1012.27
961.347
945.732
952.162
907.454
803.621
608.468
306.75
153.656
1532.91
1438.12
1343.87
1295.87
1336.15
1332.95
1217.73
910.588
401.374
153.416
1412.95
1370.61
1424.28
1468.93
1479.56
1438.64
1336.52
1016.18
484.98
154.499
1197.37
1003.38
1094.52
1254.95
1286.81
1279.08
1251.6
1034.26
532.688
155.167
1392.51
878.186
788.315
952.265
1008.19
1033
1095.71
1004.11
568.3
156.466
2024.69
1035.05
611.14
649.842
714.501
780.079
896.139
919.726
575.564
154.82
3000.39
1566.87
603.908
511.396
535.804
596.435
692.142
774.563
583.085
156.548
3579.83
2468.17
727.354
502.084
502.72
530.259
573.286
620.25
546.066
156.22
3402.07
2672.33
767.106
542.944
531.878
545.751
562.552
568.023
496.946
154.277
2966.63
2406.92
807.281
616.696
612.604
628.527
641.669
628.458
518.636
155.044
2312.52
1755.76
834.014
720.241
730.618
753.563
776.544
759.66
575.986
156.965
1487.62
957.079
829.245
869.031
883.756
901.074
934.154
900.212
579.191
155.776
1012.9
899.526
963.119
1078.02
1096.84
1073.37
1080.54
970.091
545.623
154.367
954.713
973.454
1093.04
1252.56
1257.14
1202.56
1159.96
973.899
523.806
156.945
1020.16
1037.91
1126.8
1219.11
1242.65
1218.29
1155.19
925.415
471.702
157.005
1046.73
1017.63
981.753
972.738
1028.91
1052.79
1024.82
816.035
405.678
161.463
721.341
646.044
543.49
501.907
583.871
671.029
711.631
630.319
322.573
176.666
222.372
208.071
210.805
222.531
247.914
281.967
346.795
397.569
268.294
227.037
146.65
146.074
147.499
151.9
163.095
190.906
261.952
440.249
241.618
380.978
1291.69
1291.6
1282.32
1238.11
1159.1
1015.94
802.023
541.312
314.67
219.571
1766.02
1826.22
1873.34
1851.44
1794.04
1653.97
1378.91
930.148
415.277
158.898
2217.05
2358.88
2449.51
2503.73
2528.49
2447.01
2120.24
1437.59
562.891
159.415
2388.97
2318.21
2424.21
2625.03
2691.87
2537.33
2204.9
1573.37
666.766
159.914
2380.71
1886.24
1810.44
2095.65
2257.97
2154.56
1979.56
1549.23
715.988
159.31
2534.37
1616.36
1274.33
1522.81
1673.5
1634.42
1637.32
1451.16
775.449
161.233
3012.06
1716.64
978.911
1037.51
1132.37
1163.91
1265.39
1265.23
782.58
164.168
3670.59
2247.37
947.272
797.185
814.192
854.069
941.819
1009.33
725.802
161.126
4043.87
2981.84
1120.74
779.727
754.09
757.06
780.913
806.609
680.495
163.158
3892.17
3154.61
1217.85
869.629
818.642
797.151
780.201
747.706
620.532
163.697
3550.26
2974.97
1325.48
1025.38
977.172
944.49
908.942
839.322
652.38
163.575
3086.25
2518.82
1435.04
1250.52
1218.37
1171.86
1127.01
1031.16
731.961
162.557
2585.62
1958.27
1526.76
1571.81
1552.77
1465.23
1400.55
1256.85
753.95
161.228
2344.8
1912.9
1776.99
1967.03
1992.4
1823.93
1686.81
1425.88
770.568
164.161
2243.36
2003.57
1981.08
2253.39
2336.68
2125.74
1886.65
1474.2
714.714
161.571
2022.61
1973.79
2011.94
2228.09
2366.09
2229.36
1949.07
1434.5
633.792
164.852
1478.01
1613.08
1706.64
1829.94
1952.83
1952.76
1763.63
1289.78
568.639
176.742
741.282
883.561
939.366
963.41
1072.81
1216.84
1229.68
965.901
462.161
205.209
320.787
276.632
318.43
318.049
337.797
391.116
465.613
482.851
369.361
281.023
393.338
152.88
155.021
158.859
172.196
196.941
239.499
296.38
307.199
472.661
2086.14
2208.42
2260.21
2177.18
1991.16
1676.45
1308.29
954.057
763.844
855.362
2637.87
2948.94
3211.01
3218.37
3095.43
2696.45
2168.46
1514.4
1012.83
1125.27
3016.46
3502.08
3961.28
4219.07
4283.6
3911.84
3174.91
2036.52
1001.75
876.355
3103.84
3417.62
3694.76
4096.69
4282.28
3941.94
3238.19
2136.42
881.015
166.431
3215.71
3054.3
2946.91
3276.3
3518.64
3299.53
2866.13
2137.26
978.721
170.295
3595.06
2860.95
2253.15
2401.8
2591.21
2468.83
2319.34
1979.59
1044.79
173.547
4115.14
2943.05
1833.15
1694.77
1774.59
1730.45
1753.32
1677.94
1019.9
174.449
4562.08
3301.95
1779.34
1334.35
1296.8
1262.53
1302.94
1329.81
942.33
175.173
4788.55
3760.11
1998.16
1297.11
1182.97
1115.23
1093.64
1086.13
868.584
178.632
4710.44
3916.19
2151.27
1446.03
1283.46
1180.48
1106.03
1031.7
835.573
184.885
4541.98
3916.42
2384.88
1737.36
1564.25
1418.13
1292.85
1150.3
866.834
182.665
4314.88
3788.35
2661.25
2162.43
2006.16
1798.18
1614.72
1399.2
938.382
175.959
4035.83
3597.74
2880.62
2715.48
2593.98
2299.37
2036.41
1718.54
1009.53
177.207
3737.97
3587.75
3226.25
3320.52
3291.78
2898.86
2489.47
1988.51
1049.02
184.839
3192.58
3436.9
3423.01
3713.64
3821.23
3405.13
2832.36
2111.59
1030.29
207.23
2430.02
2973.31
3246.57
3624.05
3863.29
3571.6
2958.09
2080.57
987.021
277.932
1580.74
2175.59
2583.38
2942.21
3229.27
3129.92
2695.34
1892.43
1011.02
500.181
804.999
1175.3
1532.41
1672.18
1887.65
1953.66
1866.02
1471.5
1060.61
1183.14
365.895
447.37
582.196
464.1
513.613
544.675
652.009
730.459
777.526
1071.93
277.16
298.693
521.282
167.31
178.072
197.939
233.597
290.186
381.056
605.809
3230.13
3518.97
3627.64
3457.28
3078.53
2538.62
1860.93
1367.86
1095.39
1064.45
3898.3
4544.2
5034.79
5040.38
4683.82
4065.73
2929.81
2020.59
1382.85
1318.05
4231.76
5195.57
6070.54
6416.5
6253.54
5446.48
4113.47
2538.63
1364.06
809.66
4142.58
4963.49
5578.86
6075.68
6160.77
5476.87
4295.8
2812.06
1702.78
1533.48
4062.59
4553.54
4737.67
5076.38
5247.27
4800.13
3957.42
2785.43
1615.22
1272.57
4178.84
4273.87
3918.26
3918.09
4029.7
3751.26
3305.14
2610.36
1410.34
342.882
4489.17
4261.94
3365.31
2941.93
2899.1
2721.17
2598.64
2415.29
1601.55
674.101
4869.73
4484.69
3233.33
2416.84
2204.46
2015.11
1990.74
2044.16
1772.3
1698.35
5181.46
4839.89
3414.05
2325.6
1985.61
1746.46
1634.04
1538.8
1136.48
209.668
5296.02
5088.02
3678.9
2528.1
2120.2
1833.97
1669.35
1511.98
1164.81
251.255
5288.51
5298.82
4101.25
3026.63
2585.62
2216.13
1968.72
1735.02
1306.5
359.16
5154.86
5437.45
4600.4
3751.04
3316.8
2827.89
2461.25
2148.98
1585.41
693.189
4897.38
5470.89
5044.21
4574.56
4205.48
3579.57
3033.34
2579.52
1903.03
1741.72
4525.49
5436.73
5443.19
5374.57
5147.37
4414.99
3568.9
2694.99
1428.86
344.903
3885.48
5041.82
5502.95
5799.27
5781.17
5056.32
4007.78
2846.75
1613.39
676.366
3002.89
4221.34
4973.33
5497.95
5660.88
5086.89
4034.8
2783.79
1836.48
1671.8
1989.01
3035.96
3878.97
4418.68
4660.82
4306.26
3465.19
2386.08
1602.46
1481.74
1061.26
1732.86
2454.43
2771.83
2941.71
2892.17
2377.98
1804.16
1258.64
828.652
452.086
656.374
921.175
1029.01
1095.83
1381.66
958.783
1161.79
1305.4
1330.12
257.499
330.384
494.761
752.078
654.963
1403.68
378.981
658.519
1312.26
891.531
4829.98
5266.9
5301.5
4884.73
4150.57
3254.5
2310.54
1591.42
1187.28
954.629
5732.5
6768.86
7274.4
7025.23
6176.4
5009.34
3533.47
2236.9
1520.54
1234.52
6115.12
7680.35
8733.5
8707.05
7937.87
6506.24
4638.01
2721.13
1686.78
1278.95
5904.33
7409.83
8288.21
8431.39
7945.15
6692.34
4952.52
3063.91
2003.71
1683.21
5657.34
6927.25
7408.53
7493.04
7236.9
6283.71
4827.05
3118.94
1894.44
1439.28
5539.78
6465.73
6482.32
6346.03
6199.09
5553.88
4518.6
3171.89
1788.21
588.092
5626.64
6270.63
5778.85
5305.1
5095.42
4667.31
4102.26
3360.94
2375.97
1281.98
5851.16
6309.36
5503.04
4668.7
4253.89
3831.92
3527.1
3373.16
3100.03
3137.76
6154.54
6648.65
5670.63
4519.67
3842.99
3301.67
3054.42
3030.93
2841.45
2864.52
6392.22
7021.26
6055.35
4789.82
3914.89
3273.78
3020.56
3009.47
2957.5
3219.6
6564.31
7429.23
6669.31
5493.47
4574.59
3765.4
3296.92
3097.9
2903.9
3119.59
6607.92
7763.73
7349.08
6437.71
5614.04
4618.08
3784.81
3244.06
2738.58
2720.81
6464.32
7916.92
7893.42
7341.1
6638.9
5519.3
4303.6
3268.17
2431.05
2365.9
6077.63
7869.08
8256.08
8025.42
7448.57
6225.32
4677.65
3057.61
1602.45
453.731
5278.67
7235.75
8069.94
8143.77
7699.69
6485.95
4834.21
3133.25
1866.3
869.642
4143.88
6068.48
7142.32
7399.82
7089.15
6038.52
4518.98
2945.23
2102.93
1863.91
2822.88
4427.51
5574.3
5874.67
5685.79
4925.04
3712.88
2386.55
1728.22
1553.01
1611.6
2668.82
3592.59
3765.02
3696.06
3339.36
2537.85
1730.45
1289.08
1080.53
799.331
1145.61
1516.98
1451.54
1539.33
1661.04
1166.48
1124.12
1109.94
1055.21
661.52
641.208
1251.73
572.686
771.08
1350.45
379.529
525.263
705.748
715.449
6734.29
7162.97
6895.54
6033.54
4845.01
3573.78
2384.46
1495.09
994.089
637.755
7938.92
9164.76
9338.54
8486.42
7007.14
5288.76
3484.64
1993.42
1231.38
790.402
8449.59
10365.9
11046.4
10310.7
8805.47
6704.44
4394.78
2387.73
1413.48
888.236
8240.86
10235.8
10857
10340.1
9126.05
7185.02
4883.38
2769.08
1683.41
1106.15
7934.78
9802.54
10124.5
9731.31
8836.96
7210.37
5103.52
3007.53
1797.2
1133.01
7721.34
9367.52
9250.25
8848.59
8239.73
6977.57
5237.87
3377.5
2117.45
1264.63
7686.44
9071.35
8633.68
8070.06
7489.96
6536.59
5193.74
3749.74
2694.77
1800.29
7858.11
9097.27
8404.29
7584.19
6889.12
6027.31
4965.44
3955.22
3239
2563.53
8159.59
9377.36
8536.42
7493.1
6586.89
5627.81
4647.29
3812.73
3206.65
2624.9
8485.65
9817.8
8981.48
7818.24
6696.68
5562.95
4546.08
3770.59
3252.2
2762.27
8751.45
10299.8
9621.28
8499.88
7289.03
5942.07
4658.12
3674.78
3073.74
2625.82
8840.85
10662.4
10243.5
9282.02
8091.42
6553.46
4882.52
3519.67
2734.83
2290.67
8644.29
10760.1
10643.2
9869.81
8699.15
7003.52
5003.9
3256.65
2291.3
1855.77
8048.76
10420.1
10627.7
10061.3
8949.74
7146.43
4945.36
2896.03
1715
1104.69
6960.15
9476.84
10023.2
9629.96
8639.01
6873.84
4739.46
2768.8
1723.02
1128.25
5434.52
7817.33
8714.18
8451.79
7561.51
6022.27
4124.22
2384.85
1578.38
1138.64
3714.34
5692.93
6681.16
6527.99
5873.56
4711.57
3237.76
1872.83
1258.58
918.09
2117.32
3406.24
4190.09
4106.27
3740.52
3092.41
2178.37
1340.57
951.358
664.218
996.892
1368.81
1632.32
1576.19
1518.17
1446.82
1119.29
949.324
870.507
585.23
705.159
473.572
584.986
425.756
508.551
593.919
396.62
561.272
900.705
409.109
8485.9
8662.1
7934.25
6548.95
4950.26
3374.81
2070.81
1189.09
710.378
394.624
9894.87
10881.4
10512.7
8942.92
6928.76
4740.55
2820.57
1483.42
849.854
466.976
10517.8
12159.9
12176.7
10639.7
8424.59
5836.32
3418.22
1742.74
981.816
530.269
10453.8
12307.7
12380.5
11061.4
9044.44
6499.22
3952.99
2037.8
1153.67
630.256
10256.8
12143.4
12075.4
10978.4
9253.16
6888.05
4354
2313.87
1310.05
698.415
10107.6
11924.8
11588.7
10628
9228.82
7177.37
4813.33
2721.83
1599.64
851.735
10091.8
11769.4
11188.5
10200.4
8939.6
7149.66
5014.37
3086.12
1972.56
1110.38
10259.7
11836
11057.2
9931.69
8653.42
7000.3
5061.69
3331.75
2276.04
1384.27
10548.7
12102.7
11192
9902.19
8475.94
6766.4
4893.46
3295.86
2300.77
1436.09
10856.8
12496.9
11567.9
10165.7
8555.76
6694.25
4786.38
3231.36
2287.33
1466.63
11049.7
12856
12023.9
10609.4
8886.16
6830.64
4714.54
3037.83
2100.27
1366.01
10983
12999.1
12345.6
10994.1
9232.83
7013.09
4631.38
2749.72
1798.25
1172.68
10530.1
12766.6
12343.3
11083.8
9303.99
6975.99
4442.56
2407.61
1461.37
941.058
9586.48
11994.9
11848.2
10710.8
8966.15
6605.04
4070.42
2031.51
1137.27
675.877
8122.91
10581.8
10769.2
9770.03
8146.98
5942.14
3640.54
1822.57
1065.83
640.405
6254.24
8531.55
9042.06
8196.6
6759.61
4851.57
2914.71
1481.93
921.188
576.021
4282.82
6164.38
6814.44
6167.77
5100.97
3660.6
2222.42
1161.9
737.222
469.959
2543.3
3831.97
4416.03
3931.13
3318.74
2351.35
1488.88
885.203
584.323
365.326
1368.2
1984.46
2445.15
1873.5
1859.72
1185.18
941.013
772.007
523.788
313.649
939.932
1170.08
2458.7
899.06
1800.86
442.603
511.27
837.386
471.314
233.337
9452.3
9112.81
7864.65
6100.62
4315
2732.23
1563.92
856.225
484.346
262.818
10834.4
11063
9960.58
7881.99
5660.07
3565.46
1970.18
1025.67
563.448
295.341
11529.8
12208.9
11309.1
9122.76
6653.99
4226.16
2330.34
1195.08
647.531
328.796
11753.9
12768.2
12052.7
9928.7
7424.09
4819.1
2705.55
1391.89
752.878
375.014
11822
13014.3
12337.1
10376.4
7956.59
5301.1
3055.54
1604.39
872.233
422.846
11901.4
13249.8
12489.3
10738.4
8502.91
5851.35
3468.66
1870.56
1046.8
504.792
11986.2
13329.3
12453.5
10740.8
8661.22
6132.35
3733.92
2093.5
1232.32
609.415
12163.3
13485.3
12518.3
10785.6
8744.22
6370.03
3940.16
2222.15
1354.67
698.138
12376
13694.6
12636.2
10823.2
8702.01
6284.97
3927.68
2197.15
1354.75
714.791
12530.3
13909.3
12829.7
10956
8724.8
6218.15
3869.95
2116.22
1307.79
708.6
12482.1
13972.1
12943.3
11035.3
8723.65
6112.16
3677.63
1929.76
1175.12
651.745
12093.4
13721.4
12807.8