/*--------------------------------*- C++ -*----------------------------------*\
  =========                 |
  \\      /  F ield         | OpenFOAM: The Open Source CFD Toolbox
   \\    /   O peration     | Website:  https://openfoam.org
    \\  /    A nd           | Version:  7
     \\/     M anipulation  |
\*---------------------------------------------------------------------------*/
FoamFile
{
    version     2.0;
    format      ascii;
    class       volScalarField;
    location    "1";
    object      O2;
}
// * * * * * * * * * * * * * * * * * * * * * * * * * * * * * * * * * * * * * //

dimensions      [0 0 0 0 0 0 0];

internalField   nonuniform List<scalar> 
4000
(
0.197003
0.197211
0.230502
0.232984
0.23301
0.23301
0.23301
0.23301
0.23301
0.23301
0.114128
0.113234
0.228219
0.232971
0.233009
0.233005
0.233006
0.233009
0.23301
0.23301
0.0673205
0.0790197
0.22578
0.232947
0.233001
0.232966
0.232998
0.233009
0.23301
0.23301
0.0304334
0.0792858
0.224926
0.232887
0.232961
0.232911
0.232996
0.233009
0.23301
0.23301
0.0202426
0.0905527
0.224933
0.232824
0.232787
0.23291
0.232996
0.233008
0.23301
0.23301
0.0192289
0.108891
0.225246
0.232569
0.23257
0.232924
0.232996
0.233008
0.23301
0.23301
0.0281327
0.121797
0.225989
0.232369
0.232542
0.23294
0.232996
0.233007
0.23301
0.23301
0.035912
0.129318
0.226269
0.23177
0.232574
0.232949
0.232995
0.233007
0.23301
0.23301
0.037457
0.132898
0.226089
0.231425
0.232621
0.232949
0.232995
0.233007
0.23301
0.23301
0.0382869
0.132979
0.225239
0.23144
0.232646
0.232948
0.232995
0.233006
0.23301
0.23301
0.0382898
0.132981
0.225238
0.23144
0.232646
0.232948
0.232995
0.233006
0.23301
0.23301
0.0374641
0.132902
0.226089
0.231425
0.232621
0.232949
0.232995
0.233007
0.23301
0.23301
0.0359121
0.129319
0.226269
0.23177
0.232574
0.232949
0.232995
0.233007
0.23301
0.23301
0.0281326
0.121797
0.225989
0.232369
0.232542
0.23294
0.232996
0.233007
0.23301
0.23301
0.0192288
0.108891
0.225246
0.232569
0.23257
0.232924
0.232996
0.233008
0.23301
0.23301
0.0202419
0.0905559
0.224933
0.232824
0.232787
0.23291
0.232996
0.233008
0.23301
0.23301
0.0304302
0.0792905
0.224926
0.232887
0.232961
0.232911
0.232996
0.233009
0.23301
0.23301
0.0673093
0.0790209
0.225781
0.232947
0.233001
0.232966
0.232998
0.233009
0.23301
0.23301
0.11411
0.113222
0.22822
0.232971
0.233009
0.233005
0.233006
0.233009
0.23301
0.23301
0.196984
0.197194
0.230503
0.232984
0.23301
0.23301
0.23301
0.23301
0.23301
0.23301
0.217789
0.221718
0.232731
0.233009
0.23301
0.233009
0.233007
0.233009
0.23301
0.23301
0.174225
0.17379
0.229856
0.232959
0.233008
0.232999
0.232974
0.233001
0.233009
0.23301
0.102046
0.102887
0.222899
0.232785
0.232997
0.232928
0.232929
0.232999
0.233009
0.23301
0.062661
0.0676287
0.214216
0.232463
0.232957
0.232754
0.232929
0.233
0.233009
0.23301
0.0305041
0.0623993
0.213708
0.232499
0.232838
0.232685
0.232936
0.232999
0.233009
0.23301
0.019984
0.0817349
0.214928
0.23247
0.232518
0.232705
0.232942
0.232998
0.233009
0.23301
0.0259476
0.101217
0.218321
0.23234
0.23218
0.232761
0.232943
0.232996
0.233008
0.23301
0.0420172
0.138231
0.222838
0.231998
0.232131
0.232772
0.232941
0.232995
0.233008
0.23301
0.0548013
0.15758
0.224698
0.23105
0.232247
0.232764
0.232937
0.232994
0.233008
0.23301
0.0566413
0.156178
0.223959
0.229925
0.232222
0.232693
0.232935
0.232992
0.233008
0.23301
0.0566425
0.156178
0.223958
0.229925
0.232222
0.232693
0.232935
0.232992
0.233008
0.23301
0.054798
0.157578
0.224698
0.23105
0.232247
0.232764
0.232937
0.232994
0.233008
0.23301
0.0420173
0.138231
0.222838
0.231998
0.232132
0.232772
0.232941
0.232995
0.233008
0.23301
0.025949
0.101219
0.21832
0.23234
0.232187
0.232761
0.232943
0.232996
0.233008
0.23301
0.0199817
0.0817403
0.214927
0.232469
0.232504
0.232705
0.232942
0.232998
0.233009
0.23301
0.0304988
0.0624009
0.213708
0.232499
0.232845
0.232685
0.232936
0.232999
0.233009
0.23301
0.0626525
0.0676283
0.214217
0.232463
0.232956
0.232754
0.232929
0.233
0.233009
0.23301
0.102036
0.102889
0.222899
0.232785
0.232997
0.232928
0.232929
0.232999
0.233009
0.23301
0.174226
0.173795
0.229856
0.232959
0.233008
0.232999
0.232974
0.233001
0.233009
0.23301
0.217789
0.221719
0.232731
0.233009
0.23301
0.233009
0.233007
0.233009
0.23301
0.23301
0.231799
0.232354
0.233003
0.23301
0.23301
0.23301
0.233001
0.232995
0.233006
0.23301
0.225904
0.226288
0.232557
0.233002
0.233007
0.23299
0.232917
0.232928
0.232995
0.233009
0.205021
0.196988
0.229295
0.232885
0.232991
0.232926
0.232717
0.232914
0.232996
0.233009
0.131673
0.123317
0.218951
0.232408
0.232962
0.232709
0.232631
0.232921
0.232996
0.233009
0.0552936
0.0705179
0.204861
0.231464
0.232805
0.23225
0.232636
0.232924
0.232994
0.233009
0.0274935
0.0533761
0.187472
0.230331
0.232552
0.232123
0.232659
0.232921
0.232993
0.233009
0.0206392
0.0643079
0.194268
0.230535
0.231938
0.23206
0.232637
0.232914
0.232991
0.233009
0.0342883
0.10684
0.209125
0.230905
0.231579
0.231936
0.23262
0.232906
0.23299
0.233009
0.0536496
0.15674
0.21998
0.230603
0.230678
0.231899
0.232597
0.232898
0.232988
0.233009
0.0642322
0.175585
0.2213
0.2287
0.230194
0.232072
0.232581
0.232893
0.232987
0.233008
0.0642269
0.175582
0.221299
0.228699
0.230194
0.232072
0.232581
0.232893
0.232987
0.233008
0.0536416
0.156738
0.219981
0.230603
0.230678
0.231899
0.232597
0.232898
0.232988
0.233009
0.034291
0.106843
0.209128
0.230904
0.231577
0.231936
0.23262
0.232906
0.23299
0.233009
0.0206361
0.0643079
0.194264
0.230534
0.231937
0.23206
0.232637
0.232914
0.232991
0.233009
0.0274847
0.0533703
0.187465
0.23033
0.232553
0.232123
0.232659
0.232921
0.232993
0.233009
0.0552746
0.0705085
0.204856
0.231464
0.232805
0.23225
0.232636
0.232924
0.232994
0.233009
0.131633
0.12329
0.218947
0.232407
0.232962
0.232709
0.232631
0.232921
0.232996
0.233009
0.205013
0.196978
0.229294
0.232885
0.232991
0.232926
0.232717
0.232914
0.232996
0.233009
0.225902
0.226287
0.232557
0.233002
0.233007
0.23299
0.232917
0.232928
0.232995
0.233009
0.231798
0.232354
0.233003
0.23301
0.23301
0.23301
0.233001
0.232995
0.233006
0.23301
0.232967
0.233002
0.23301
0.23301
0.23301
0.23301
0.233009
0.232967
0.23295
0.232999
0.232625
0.232717
0.232994
0.23301
0.233007
0.232988
0.232889
0.232665
0.232812
0.232986
0.23041
0.229844
0.232679
0.232997
0.232996
0.232946
0.232623
0.23241
0.232839
0.232994
0.216452
0.214179
0.230364
0.232892
0.232978
0.232734
0.232015
0.232413
0.232852
0.232992
0.153996
0.151878
0.219213
0.232207
0.232879
0.232277
0.231728
0.23245
0.232851
0.232993
0.061823
0.0716854
0.197502
0.230926
0.232477
0.231395
0.231629
0.232472
0.232848
0.232994
0.0277187
0.0547913
0.175451
0.228049
0.23186
0.231156
0.231615
0.23247
0.232842
0.232993
0.0244762
0.0695195
0.183854
0.228213
0.231123
0.230904
0.231439
0.232452
0.232835
0.232993
0.0477006
0.135829
0.205241
0.229314
0.230445
0.230833
0.231318
0.232432
0.232826
0.232993
0.0630357
0.174279
0.217538
0.228253
0.22877
0.230856
0.231315
0.232422
0.232819
0.232992
0.063029
0.174279
0.217544
0.228252
0.22877
0.230856
0.231315
0.232422
0.232819
0.232992
0.0476619
0.135833
0.205248
0.229313
0.230444
0.230833
0.231318
0.232432
0.232826
0.232993
0.0244751
0.0695246
0.183846
0.228212
0.231122
0.230904
0.231439
0.232452
0.232835
0.232993
0.0277126
0.0547847
0.175432
0.228047
0.23186
0.231156
0.231615
0.23247
0.232842
0.232993
0.061806
0.0716645
0.197483
0.230924
0.232478
0.231394
0.231629
0.232472
0.232848
0.232994
0.153969
0.151841
0.219205
0.232206
0.232879
0.232277
0.231728
0.23245
0.232851
0.232993
0.216445
0.21417
0.230363
0.232892
0.232978
0.232734
0.232015
0.232413
0.232852
0.232992
0.230409
0.229842
0.232679
0.232997
0.232996
0.232946
0.232623
0.23241
0.232839
0.232994
0.232625
0.232717
0.232994
0.23301
0.233007
0.232988
0.232889
0.232665
0.232812
0.232986
0.232967
0.233002
0.23301
0.23301
0.23301
0.23301
0.233009
0.232967
0.23295
0.232999
0.23299
0.233009
0.23301
0.23301
0.23301
0.23301
0.23301
0.232999
0.232817
0.232827
0.232954
0.232989
0.233006
0.23301
0.233007
0.232989
0.232921
0.232555
0.231969
0.232678
0.232733
0.232746
0.232972
0.233005
0.233002
0.232957
0.232753
0.231694
0.231912
0.232794
0.230869
0.230948
0.232684
0.232986
0.232951
0.232806
0.231946
0.23093
0.231955
0.232804
0.21913
0.21924
0.230464
0.232781
0.232855
0.232311
0.230844
0.230661
0.231994
0.232837
0.150478
0.163488
0.221791
0.231966
0.232412
0.231221
0.230093
0.230545
0.232015
0.232864
0.0564724
0.0749271
0.194106
0.23013
0.231908
0.230184
0.229491
0.230402
0.232013
0.232879
0.0266146
0.058716
0.175225
0.226181
0.23031
0.229779
0.229327
0.230275
0.232019
0.232886
0.0338714
0.0985545
0.185449
0.226748
0.229755
0.229365
0.229325
0.230099
0.232009
0.232886
0.0578617
0.165858
0.209247
0.227154
0.2279
0.228114
0.229393
0.230009
0.232002
0.232884
0.0578545
0.165863
0.209247
0.227153
0.227897
0.228113
0.229393
0.230009
0.232002
0.232884
0.0338513
0.0985794
0.185447
0.226748
0.229756
0.229364
0.229325
0.230098
0.232009
0.232886
0.026614
0.0587104
0.175213
0.226179
0.230312
0.229779
0.229327
0.230275
0.232019
0.232886
0.0564666
0.0749077
0.194077
0.230129
0.231913
0.230185
0.229491
0.230402
0.232012
0.232879
0.150471
0.163459
0.221781
0.231965
0.232416
0.231221
0.230093
0.230545
0.232014
0.232864
0.219127
0.219231
0.230463
0.232781
0.232856
0.23231
0.230844
0.23066
0.231994
0.232837
0.230868
0.230947
0.232684
0.232986
0.232951
0.232806
0.231946
0.23093
0.231954
0.232804
0.232733
0.232745
0.232972
0.233005
0.233002
0.232957
0.232753
0.231694
0.231911
0.232794
0.232953
0.232989
0.233006
0.23301
0.233007
0.232989
0.232921
0.232555
0.231969
0.232678
0.23299
0.233009
0.23301
0.23301
0.23301
0.23301
0.23301
0.232999
0.232817
0.232827
0.232989
0.233008
0.233009
0.23301
0.23301
0.23301
0.23301
0.233006
0.232828
0.232085
0.232949
0.232986
0.232998
0.233005
0.233007
0.232994
0.232919
0.232613
0.230938
0.231409
0.232863
0.232899
0.232956
0.232991
0.232995
0.232957
0.232753
0.231728
0.229513
0.231803
0.232295
0.232432
0.232687
0.232948
0.23288
0.232795
0.231887
0.229378
0.228838
0.231883
0.229707
0.230173
0.231818
0.232494
0.232628
0.232201
0.230059
0.227606
0.228585
0.232113
0.211901
0.217057
0.229029
0.23171
0.231737
0.230913
0.227973
0.22678
0.228525
0.232332
0.118109
0.153422
0.21928
0.230547
0.231243
0.228652
0.226821
0.226388
0.228419
0.232436
0.0397381
0.0674427
0.181352
0.226273
0.230227
0.228428
0.226746
0.226109
0.22841
0.232532
0.029189
0.0709147
0.181722
0.225031
0.228539
0.227906
0.226512
0.226145
0.228427
0.232596
0.0527955
0.150106
0.20154
0.225258
0.227081
0.226703
0.226136
0.226289
0.22831
0.232603
0.0527935
0.150128
0.201539
0.225258
0.227081
0.226703
0.226136
0.226289
0.22831
0.232603
0.0291974
0.0709251
0.181721
0.225031
0.22854
0.227906
0.226512
0.226145
0.228427
0.232596
0.039747
0.0674353
0.181342
0.226272
0.230228
0.228428
0.226746
0.226109
0.22841
0.232532
0.118123
0.153399
0.219271
0.230546
0.231244
0.228651
0.226821
0.226388
0.228419
0.232436
0.211903
0.217051
0.229027
0.23171
0.231734
0.230912
0.227973
0.226779
0.228524
0.232332
0.229707
0.230172
0.231818
0.232494
0.23263
0.232201
0.230058
0.227606
0.228584
0.232112
0.232296
0.232432
0.232687
0.232948
0.232879
0.232795
0.231887
0.229377
0.228837
0.231883
0.232863
0.232899
0.232956
0.232991
0.232995
0.232957
0.232753
0.231728
0.229512
0.231803
0.232949
0.232986
0.232998
0.233005
0.233007
0.232994
0.232919
0.232613
0.230938
0.231409
0.232989
0.233008
0.233009
0.23301
0.23301
0.23301
0.23301
0.233006
0.232828
0.232084
0.232965
0.233004
0.233005
0.233006
0.233009
0.23301
0.233009
0.233004
0.23284
0.230797
0.232869
0.232938
0.232955
0.232984
0.232997
0.232987
0.232899
0.232509
0.230067
0.229167
0.232679
0.232808
0.232855
0.232899
0.232933
0.232872
0.232615
0.231284
0.2265
0.229617
0.231691
0.232202
0.232557
0.2326
0.232682
0.232453
0.23127
0.227388
0.223534
0.229988
0.229736
0.230514
0.230865
0.230666
0.231581
0.231235
0.228677
0.223369
0.222096
0.23052
0.223988
0.226245
0.229081
0.22889
0.229928
0.229314
0.224805
0.221151
0.221861
0.231258
0.187498
0.203677
0.22394
0.228651
0.228745
0.226609
0.22279
0.220134
0.221813
0.231565
0.079564
0.108439
0.197367
0.226247
0.228857
0.225539
0.222519
0.220118
0.222085
0.231848
0.0317955
0.0735077
0.17449
0.222629
0.227683
0.225825
0.222923
0.220027
0.221983
0.232014
0.0452943
0.127804
0.193044
0.222965
0.225699
0.225126
0.222978
0.219888
0.222088
0.232096
0.0452876
0.127815
0.193044
0.222967
0.225699
0.225126
0.222978
0.219888
0.222088
0.232096
0.0318125
0.0735202
0.174498
0.222632
0.227679
0.225824
0.222922
0.220025
0.221982
0.232014
0.0795991
0.108437
0.197362
0.226246
0.228854
0.225535
0.222518
0.220117
0.222084
0.231848
0.187519
0.203675
0.223938
0.228651
0.22874
0.226609
0.222789
0.220133
0.221812
0.231565
0.22399
0.226244
0.22908
0.228889
0.229924
0.229313
0.224804
0.221152
0.22186
0.231258
0.229736
0.230513
0.230865
0.230665
0.231581
0.231234
0.228675
0.223368
0.222094
0.23052
0.231691
0.232201
0.232556
0.2326
0.232682
0.232453
0.23127
0.227387
0.223532
0.229987
0.232679
0.232808
0.232855
0.232899
0.232933
0.232872
0.232615
0.231283
0.226498
0.229616
0.232869
0.232938
0.232955
0.232984
0.232997
0.232987
0.232899
0.232509
0.230067
0.229166
0.232965
0.233004
0.233005
0.233006
0.233009
0.23301
0.233009
0.233004
0.23284
0.230796
0.232838
0.232926
0.232981
0.233001
0.233008
0.233008
0.233007
0.23299
0.232393
0.2292
0.232459
0.232535
0.232636
0.232852
0.232923
0.232886
0.232829
0.231901
0.226755
0.226731
0.231624
0.23189
0.232041
0.232525
0.232605
0.232193
0.231953
0.229242
0.220628
0.227345
0.228186
0.229865
0.230315
0.23123
0.230938
0.229216
0.22863
0.222362
0.215944
0.228075
0.224697
0.22572
0.225911
0.226451
0.226118
0.22539
0.224071
0.216369
0.214027
0.229234
0.222557
0.224145
0.223626
0.223868
0.225285
0.22463
0.218823
0.212619
0.212632
0.229608
0.206509
0.214348
0.222296
0.224406
0.22566
0.223468
0.216889
0.211515
0.212215
0.229896
0.132566
0.167155
0.209882
0.224094
0.22647
0.223042
0.217011
0.211212
0.212384
0.23027
0.0443013
0.0802152
0.173557
0.22069
0.226395
0.223867
0.218775
0.210874
0.213712
0.231143
0.041685
0.109323
0.185801
0.22096
0.2248
0.223611
0.219738
0.211921
0.214257
0.231245
0.0416883
0.109327
0.185807
0.220963
0.224801
0.223612
0.219738
0.211921
0.214257
0.231245
0.0443419
0.0802411
0.173571
0.220695
0.226394
0.223866
0.218774
0.210873
0.213712
0.231143
0.132617
0.167174
0.209885
0.224095
0.226467
0.223044
0.21701
0.21121
0.212383
0.23027
0.206522
0.214351
0.222296
0.224405
0.225657
0.223468
0.216888
0.211515
0.212214
0.229897
0.222559
0.224145
0.223625
0.223866
0.225284
0.224628
0.218823
0.212617
0.21263
0.229607
0.224699
0.22572
0.22591
0.22645
0.226117
0.225388
0.22407
0.216368
0.214025
0.229234
0.228189
0.229865
0.230315
0.231229
0.230937
0.229214
0.228628
0.22236
0.215943
0.228075
0.231624
0.231889
0.23204
0.232525
0.232604
0.232193
0.231953
0.229241
0.220626
0.227344
0.232459
0.232535
0.232636
0.232852
0.232923
0.232886
0.232829
0.2319
0.226755
0.22673
0.232838
0.232926
0.232981
0.233001
0.233008
0.233008
0.233007
0.23299
0.232393
0.2292
0.232608
0.232775
0.232926
0.23296
0.233001
0.233005
0.232985
0.232842
0.229283
0.227912
0.231179
0.231169
0.23159
0.23178
0.232568
0.232686
0.232019
0.229078
0.21601
0.224299
0.225984
0.228234
0.22938
0.229796
0.231158
0.231153
0.227756
0.220522
0.209491
0.225363
0.215053
0.218065
0.220262
0.221048
0.222798
0.223986
0.218745
0.210392
0.204308
0.225938
0.215645
0.215791
0.216067
0.215932
0.216933
0.217212
0.212838
0.20383
0.201269
0.22575
0.214632
0.214948
0.216402
0.215338
0.215658
0.21714
0.209148
0.200393
0.200433
0.227868
0.205091
0.212263
0.217731
0.214044
0.219337
0.218442
0.207955
0.197631
0.196951
0.227603
0.147812
0.184465
0.209706
0.218351
0.219467
0.220657
0.210649
0.197713
0.196912
0.228061
0.0570511
0.0971801
0.174454
0.216602
0.223175
0.222013
0.214879
0.200552
0.203374
0.229073
0.0374904
0.0998759
0.181268
0.217169
0.222594
0.222237
0.217957
0.204766
0.204221
0.229231
0.0374889
0.0998845
0.181276
0.217173
0.222595
0.222238
0.217957
0.204766
0.204221
0.229231
0.0570934
0.0972107
0.174468
0.216605
0.223177
0.222011
0.214878
0.200552
0.203372
0.229073
0.147848
0.184475
0.209709
0.218351
0.219467
0.220656
0.210648
0.197711
0.196913
0.228062
0.205101
0.212266
0.21773
0.214042
0.219337
0.218444
0.207955
0.197628
0.19695
0.227605
0.214635
0.214947
0.216403
0.215337
0.215659
0.217143
0.209149
0.200392
0.200432
0.227869
0.215646
0.215791
0.21607
0.215928
0.216932
0.217216
0.212838
0.203829
0.201267
0.225751
0.215054
0.218065
0.220264
0.221043
0.222796
0.223988
0.218744
0.210392
0.204307
0.225939
0.225984
0.228233
0.22938
0.229794
0.231157
0.231153
0.227757
0.220522
0.209491
0.225363
0.231178
0.231168
0.23159
0.23178
0.232568
0.232686
0.232018
0.229078
0.216011
0.224299
0.232608
0.232775
0.232926
0.23296
0.233001
0.233005
0.232985
0.232842
0.229286
0.227912
0.231739
0.232358
0.232844
0.232809
0.232914
0.232919
0.232838
0.231549
0.228968
0.226656
0.225985
0.227897
0.229742
0.228614
0.230611
0.230763
0.229231
0.218269
0.210835
0.222494
0.202786
0.213311
0.224312
0.22165
0.224914
0.223419
0.215489
0.201488
0.19819
0.223821
0.19297
0.196238
0.206021
0.202267
0.205409
0.204189
0.20071
0.192004
0.190334
0.223294
0.197664
0.196168
0.200417
0.197276
0.198949
0.200927
0.196645
0.185646
0.182665
0.220969
0.206782
0.205146
0.205845
0.19976
0.20035
0.204181
0.195899
0.182481
0.181971
0.224685
0.198715
0.204894
0.206922
0.206472
0.207774
0.210356
0.197046
0.183581
0.188904
0.227352
0.143187
0.182922
0.205976
0.210818
0.214691
0.215852
0.201933
0.18464
0.189145
0.227487
0.0556533
0.101437
0.174265
0.207335
0.218274
0.218938
0.212184
0.189896
0.181585
0.220462
0.0345937
0.0946235
0.179395
0.212526
0.220494
0.220494
0.216521
0.199333
0.183803
0.222665
0.0345937
0.0946308
0.179405
0.212533
0.220495
0.220495
0.216521
0.199332
0.183802
0.222667
0.0556806
0.101455
0.174277
0.207339
0.218276
0.21894
0.212188
0.189894
0.181587
0.220464
0.143206
0.182931
0.20598
0.210819
0.214694
0.215852
0.201935
0.18464
0.189151
0.227491
0.198726
0.204896
0.206921
0.20647
0.207776
0.210352
0.197046
0.18358
0.188909
0.227354
0.206782
0.205146
0.205843
0.199757
0.20035
0.204173
0.1959
0.18248
0.181974
0.224689
0.197659
0.196167
0.200411
0.197269
0.198948
0.200906
0.196646
0.185647
0.182666
0.220974
0.192966
0.196235
0.206012
0.202262
0.205411
0.204155
0.200711
0.192006
0.190338
0.223296
0.202786
0.21331
0.224307
0.221648
0.224912
0.223412
0.21549
0.20149
0.198191
0.223821
0.225982
0.227895
0.229739
0.228614
0.230609
0.230764
0.229231
0.218266
0.210836
0.222495
0.231739
0.232358
0.232844
0.232808
0.232915
0.232919
0.232838
0.231548
0.228967
0.226658
0.228961
0.231167
0.232083
0.232651
0.23155
0.231351
0.231456
0.226283
0.223722
0.225377
0.208162
0.219209
0.220145
0.225491
0.215409
0.214768
0.21609
0.195949
0.199389
0.222168
0.156428
0.181796
0.195234
0.212142
0.199038
0.184267
0.186923
0.175721
0.184063
0.222476
0.162334
0.167363
0.173351
0.180491
0.174798
0.174025
0.173528
0.166821
0.170512
0.216881
0.184594
0.170763
0.17373
0.17422
0.172856
0.175867
0.173828
0.164517
0.173806
0.223896
0.197554
0.192372
0.186089
0.179523
0.178631
0.184015
0.17711
0.164841
0.176399
0.226053
0.18892
0.196044
0.197912
0.195747
0.191957
0.1972
0.182611
0.16452
0.164021
0.217936
0.131443
0.173408
0.197825
0.199486
0.207305
0.207756
0.194873
0.169077
0.162956
0.213506
0.0504401
0.0967449
0.171353
0.203387
0.20915
0.213199
0.208199
0.183048
0.164686
0.22034
0.0321831
0.0900994
0.172846
0.208358
0.216826
0.218005
0.214656
0.196996
0.169775
0.22205
0.0321825
0.0901073
0.172859
0.208362
0.216829
0.218006
0.214656
0.196994
0.169775
0.222053
0.0504561
0.0967498
0.171363
0.20339
0.209154
0.2132
0.208195
0.183033
0.164684
0.220343
0.131445
0.173406
0.197829
0.199487
0.207308
0.207754
0.194875
0.169071
0.162963
0.213522
0.188921
0.196046
0.197913
0.195748
0.191959
0.1972
0.182617
0.164518
0.164035
0.217953
0.197552
0.192373
0.186091
0.179519
0.178618
0.184016
0.177116
0.164845
0.176414
0.22606
0.184591
0.170759
0.173719
0.174204
0.172827
0.175911
0.173829
0.164523
0.17382
0.223902
0.162327
0.167357
0.173336
0.180453
0.174724
0.174136
0.173534
0.16683
0.170523
0.216892
0.156423
0.181805
0.195222
0.212113
0.198918
0.184408
0.186934
0.175728
0.184071
0.222479
0.208163
0.219213
0.220137
0.225479
0.215425
0.214769
0.216096
0.19595
0.199392
0.22217
0.228961
0.231168
0.232082
0.23265
0.231548
0.231354
0.231457
0.22628
0.22372
0.225378
0.224761
0.228129
0.229475
0.229594
0.228827
0.229216
0.224616
0.223865
0.221923
0.223707
0.187086
0.200541
0.204284
0.203491
0.198661
0.200641
0.186655
0.185659
0.193065
0.217851
0.128882
0.140702
0.160254
0.174554
0.166298
0.152877
0.148079
0.147711
0.171684
0.219187
0.148686
0.141418
0.143132
0.146896
0.143426
0.142827
0.140575
0.140239
0.157809
0.217712
0.171773
0.163628
0.151367
0.145564
0.145908
0.148082
0.147416
0.140423
0.150834
0.215263
0.180281
0.183214
0.172301
0.153759
0.154268
0.160699
0.157169
0.143731
0.15125
0.212213
0.16548
0.186986
0.190069
0.17846
0.172978
0.179565
0.169029
0.147863
0.15255
0.220007
0.103169
0.163269
0.18854
0.19309
0.197784
0.198398
0.18637
0.157643
0.147553
0.216839
0.0445769
0.0886758
0.160926
0.195053
0.202506
0.205205
0.201888
0.178992
0.152755
0.216244
0.028544
0.0771171
0.165913
0.1993
0.209619
0.212878
0.21085
0.194499
0.16381
0.221105
0.0285337
0.0771225
0.16593
0.199302
0.20962
0.21288
0.210851
0.194496
0.163809
0.221109
0.0445745
0.0886736
0.160932
0.195062
0.202505
0.205207
0.201889
0.178969
0.152745
0.216254
0.103127
0.163262
0.188542
0.193091
0.197788
0.198403
0.18637
0.157625
0.147568
0.216855
0.16546
0.186984
0.19007
0.17848
0.173004
0.179573
0.169039
0.147861
0.152577
0.22002
0.180269
0.183214
0.172313
0.15376
0.154274
0.160705
0.157177
0.143737
0.151282
0.21224
0.171764
0.163628
0.151364
0.145541
0.145888
0.148094
0.147423
0.140433
0.15086
0.215291
0.148676
0.141412
0.143115
0.146866
0.143401
0.142814
0.140583
0.140255
0.157834
0.217726
0.128889
0.140705
0.160239
0.174507
0.166252
0.152855
0.14809
0.147732
0.1717
0.219198
0.187088
0.200542
0.204266
0.203454
0.198643
0.200626
0.186644
0.185651
0.193066
0.217858
0.224758
0.228129
0.229471
0.229585
0.228824
0.229213
0.224609
0.22386
0.221921
0.223707
0.216532
0.222915
0.217098
0.224276
0.224468
0.223149
0.216969
0.221668
0.215445
0.220724
0.182106
0.186862
0.176133
0.178159
0.183373
0.180688
0.161567
0.175032
0.177849
0.213736
0.129122
0.126852
0.128468
0.135952
0.138366
0.125567
0.114178
0.121703
0.154289
0.212198
0.116739
0.122171
0.119066
0.11544
0.11082
0.109594
0.108771
0.111715
0.138602
0.211362
0.135089
0.150334
0.142664
0.124494
0.113424
0.118103
0.119457
0.11531
0.142235
0.216457
0.141675
0.164792
0.165139
0.135631
0.126042
0.13696
0.135465
0.122498
0.13415
0.212755
0.120304
0.165317
0.179615
0.160782
0.151279
0.161421
0.153224
0.132379
0.135965
0.209108
0.0691912
0.137402
0.180103
0.183204
0.182763
0.186781
0.178012
0.148963
0.137755
0.2133
0.0351554
0.0767142
0.15467
0.188501
0.194596
0.196877
0.19466
0.175111
0.14369
0.213491
0.0235298
0.0685362
0.158532
0.18972
0.198858
0.203565
0.203172
0.190035
0.156421
0.214437
0.023543
0.0685484
0.158554
0.189722
0.198862
0.20356
0.203167
0.190028
0.156415
0.214442
0.0351491
0.0767166
0.154693
0.188491
0.194621
0.196866
0.194636
0.175064
0.143667
0.2135
0.0691486
0.137384
0.180105
0.183203
0.182752
0.186766
0.177982
0.148904
0.137766
0.213319
0.120257
0.165311
0.179613
0.160753
0.151263
0.161418
0.153205
0.13235
0.135985
0.209131
0.141656
0.164789
0.165141
0.135622
0.126035
0.136959
0.135451
0.122488
0.134192
0.212787
0.135077
0.150331
0.14266
0.124489
0.113426
0.118104
0.119453
0.115314
0.142281
0.216475
0.116737
0.122168
0.119067
0.115413
0.110784
0.109569
0.108782
0.111736
0.138657
0.211399
0.129142
0.126857
0.128442
0.135882
0.138302
0.125527
0.114192
0.121706
0.154322
0.212202
0.182119
0.186843
0.176098
0.178064
0.183348
0.180692
0.16158
0.17503
0.177872
0.213745
0.216531
0.222916
0.217063
0.224243
0.224461
0.223146
0.216969
0.221664
0.21545
0.220734
0.217729
0.216986
0.217494
0.218875
0.215731
0.214861
0.210817
0.21272
0.211096
0.219449
0.19958
0.183072
0.168442
0.165824
0.162401
0.157604
0.139932
0.159699
0.166218
0.210202
0.174334
0.134165
0.120684
0.116343
0.10462
0.0913756
0.0848278
0.0991859
0.143765
0.210951
0.124801
0.111727
0.110564
0.102258
0.0838442
0.0784089
0.0815013
0.0882453
0.130332
0.211096
0.0902122
0.105378
0.126304
0.11432
0.090661
0.0883142
0.0946071
0.093166
0.12588
0.2095
0.070852
0.107283
0.150523
0.128679
0.103273
0.111582
0.115721
0.102988
0.118881
0.206624
0.0555286
0.106964
0.162832
0.147755
0.130189
0.141237
0.139728
0.117805
0.118004
0.205418
0.0386537
0.0882285
0.162965
0.169031
0.163985
0.170977
0.16758
0.141114
0.125876
0.206364
0.0268532
0.0594114
0.142656
0.178624
0.181418
0.185553
0.185401
0.168271
0.13721
0.20891
0.0211386
0.0538468
0.146569
0.181025
0.189131
0.193239
0.193718
0.182152
0.147084
0.208042
0.0211454
0.0538596
0.146597
0.181034
0.189125
0.193231
0.193714
0.182141
0.147074
0.208048
0.0268518
0.0594195
0.142693
0.178631
0.181367
0.185549
0.185377
0.168208
0.137186
0.208928
0.0386445
0.0882145
0.162973
0.169008
0.163959
0.170969
0.167534
0.141021
0.12587
0.206382
0.0555095
0.10695
0.162822
0.147783
0.130181
0.141211
0.139683
0.117744
0.11802
0.205448
0.0708416
0.107272
0.150522
0.128628
0.103201
0.111536
0.115676
0.10295
0.118923
0.206658
0.090208
0.105374
0.126284
0.114295
0.0905924
0.0882765
0.0945806
0.0931529
0.12594
0.209537
0.124821
0.111732
0.110563
0.102242
0.0838079
0.078379
0.0814959
0.0882536
0.130404
0.211118
0.17435
0.13417
0.120665
0.116304
0.104565
0.0913432
0.0848202
0.0992317
0.143841
0.210996
0.199582
0.183058
0.168376
0.165761
0.162369
0.157592
0.139917
0.159731
0.166185
0.210208
0.217731
0.216982
0.217466
0.218853
0.215727
0.214862
0.210807
0.212733
0.211078
0.219431
0.218711
0.213247
0.213226
0.211331
0.211695
0.200911
0.208278
0.207034
0.209202
0.217669
0.20668
0.177798
0.153938
0.145479
0.140972
0.113725
0.128929
0.139659
0.156923
0.205982
0.199475
0.142418
0.109706
0.0990077
0.0752149
0.0617381
0.0643154
0.0846953
0.128114
0.206093
0.182582
0.118882
0.105967
0.0936648
0.0645788
0.054098
0.0579813
0.0761216
0.1175
0.20493
0.148293
0.103018
0.107729
0.100153
0.0734601
0.0650761
0.0731355
0.0777798
0.107248
0.20344
0.108844
0.0861105
0.113036
0.113241
0.0903384
0.0888482
0.0972037
0.0879834
0.106207
0.201314
0.0687559
0.0688823
0.116925
0.130636
0.113458
0.120056
0.124114
0.105836
0.106821
0.203265
0.0482321
0.0563315
0.115737
0.150378
0.142877
0.151491
0.153245
0.131202
0.11748
0.204459
0.0368207
0.0449659
0.107197
0.160472
0.162973
0.169618
0.17267
0.157188
0.125362
0.201288
0.031288
0.0415792
0.116235
0.166051
0.175577
0.181434
0.182748
0.17118
0.13691
0.201995
0.0312911
0.0415876
0.116266
0.166065
0.175557
0.181419
0.182738
0.171165
0.136897
0.202001
0.0368207
0.044972
0.107239
0.160545
0.162817
0.169572
0.172647
0.157121
0.125327
0.201297
0.0482286
0.05633
0.11575
0.150359
0.142816
0.151412
0.15317
0.131093
0.117468
0.204478
0.0687441
0.0688772
0.116932
0.130482
0.113309
0.119949
0.124016
0.105751
0.106822
0.203301
0.108844
0.0861123
0.113036
0.113234
0.0904036
0.0888123
0.097128
0.0879226
0.106227
0.201354
0.148304
0.103024
0.107724
0.100141
0.0734298
0.0650381
0.0730856
0.0777561
0.107269
0.20348
0.18259
0.118887
0.105971
0.0936449
0.064541
0.0540625
0.0579611
0.0761281
0.117581
0.204965
0.19947
0.142397
0.109688
0.0989741
0.0751716
0.0617104
0.0643182
0.0847269
0.128145
0.206125
0.206671
0.177765
0.153833
0.145382
0.140921
0.113734
0.128984
0.139628
0.15692
0.205997
0.21871
0.213233
0.213198
0.211313
0.211686
0.200926
0.208306
0.207024
0.209208
0.21767
0.213456
0.210616
0.210433
0.200284
0.203163
0.204829
0.200115
0.193746
0.201183
0.213334
0.206209
0.165941
0.145592
0.107698
0.109818
0.111168
0.115211
0.118166
0.144953
0.202036
0.204527
0.132249
0.0889429
0.0725316
0.05222
0.0467611
0.0530403
0.0824792
0.121192
0.200011
0.201546
0.116929
0.0904819
0.0760083
0.0459766
0.0392658
0.0463035
0.0742844
0.107796
0.195997
0.193467
0.101092
0.0884161
0.0790817
0.0528284
0.044026
0.0517786
0.0734753
0.103488
0.197899
0.183206
0.0885189
0.0865262
0.0858804
0.0681154
0.0627321
0.0744563
0.0782749
0.0998923
0.198822
0.16841
0.0735779
0.0837413
0.10292
0.0918861
0.093338
0.103974
0.091861
0.102153
0.201321
0.151324
0.0637323
0.0814281
0.118788
0.11785
0.12531
0.133424
0.117138
0.106062
0.196259
0.134653
0.0549875
0.077117
0.130825
0.138599
0.147732
0.153875
0.142181
0.114425
0.19668
0.125422
0.0514671
0.0814257
0.139537
0.153543
0.164772
0.166885
0.155589
0.122761
0.197406
0.125425
0.0514732
0.0814454
0.139565
0.153521
0.164741
0.166868
0.15557
0.122748
0.197415
0.134662
0.0549934
0.0771475
0.130978
0.138523
0.147597
0.153785
0.142099
0.114394
0.196697
0.151326
0.0637365
0.0814473
0.118882
0.11784
0.125204
0.13331
0.117029
0.106041
0.19628
0.168413
0.0735844
0.0837551
0.103036
0.0918849
0.0932587
0.103842
0.0917774
0.102156
0.20135
0.183208
0.0885237
0.0865338
0.0858546
0.0679886
0.0626112
0.0743442
0.0782217
0.099901
0.198856
0.193466
0.101092
0.0884209
0.0790675
0.0526795
0.043953
0.0517261
0.0734516
0.103503
0.197937
0.201536
0.116927
0.0904843
0.0759859
0.045933
0.0392298
0.0462792
0.0742862
0.107844
0.196038
0.204513
0.132213
0.0889219
0.0724999
0.05218
0.0467395
0.0530334
0.0825167
0.121215
0.20005
0.206197
0.165875
0.145472
0.107569
0.109762
0.11119
0.115242
0.118187
0.144982
0.202057
0.213453
0.210605
0.210412
0.200253
0.203164
0.204847
0.20013
0.19372
0.201206
0.213358
0.214585
0.197795
0.194298
0.19777
0.193149
0.196693
0.192892
0.184672
0.198369
0.211569
0.205501
0.13143
0.0973038
0.0857052
0.0767189
0.092891
0.0968278
0.115157
0.145204
0.201002
0.204115
0.105097
0.0578912
0.0463919
0.0393047
0.0415583
0.0522774
0.0938814
0.127234
0.198952
0.203296
0.0928172
0.05709
0.0456486
0.0344189
0.0341307
0.0448386
0.0848541
0.113314
0.197043
0.200363
0.0807174
0.0562282
0.0481965
0.0352488
0.033762
0.0447069
0.0796523
0.10714
0.19398
0.198231
0.0727284
0.0551906
0.0522532
0.0426701
0.0411498
0.0526142
0.0792282
0.102299
0.193997
0.194842
0.0652633
0.0572339
0.0631066
0.0565068
0.0551212
0.0680838