/*--------------------------------*- C++ -*----------------------------------*\
  =========                 |
  \\      /  F ield         | OpenFOAM: The Open Source CFD Toolbox
   \\    /   O peration     | Website:  https://openfoam.org
    \\  /    A nd           | Version:  7
     \\/     M anipulation  |
\*---------------------------------------------------------------------------*/
FoamFile
{
    version     2.0;
    format      ascii;
    class       surfaceScalarField;
    location    "1";
    object      phi;
}
// * * * * * * * * * * * * * * * * * * * * * * * * * * * * * * * * * * * * * //

dimensions      [1 0 -1 0 0 0 0];

internalField   nonuniform List<scalar> 
11200
(
6.27929e-05
0.00405169
0.000968331
0.000203307
0.00384269
0.000901151
9.07904e-05
0.00627527
-5.85818e-05
-7.11668e-05
0.00567289
-3.02064e-05
-0.000100788
0.00451975
2.99345e-05
-0.00011832
0.00360864
2.02831e-05
-0.000124995
0.00260559
5.66184e-05
-0.000104573
0.00167777
2.31403e-05
-8.04702e-05
0.000891177
-7.83797e-06
0.000244259
-1.07884e-05
-5.73762e-05
0.00325098
0.00098697
-0.000277881
0.00309077
0.00113066
-0.000297447
0.00623704
-0.000145315
-0.000296688
0.00580498
-0.000134988
-0.000323371
0.00450571
4.05745e-05
-0.000343761
0.00350207
0.00012578
-0.000326253
0.00246007
0.00012674
-0.000266923
0.00160855
9.67219e-06
-0.000225017
0.000879784
-3.02368e-05
0.000258304
-2.46832e-05
-0.000241958
0.00282703
0.000966738
-0.000765252
0.00248757
0.00132196
-0.000868415
0.00602043
-2.09997e-05
-0.000559786
0.00569472
-0.000195443
-0.000557321
0.00447196
2.9257e-05
-0.000593228
0.00320849
0.000319681
-0.000517642
0.00228934
9.39837e-05
-0.0004448
0.00153307
2.84587e-06
-0.000392046
0.000857984
-3.0535e-05
0.000264611
-2.88248e-05
-0.000457102
0.00200152
0.00134721
-0.0011263
0.00170808
0.00172361
-0.0014386
0.00585298
0.000338975
-0.000918577
0.00533875
-0.000170646
-0.000781344
0.00419674
0.000128554
-0.000811608
0.00285659
0.00037578
-0.000711988
0.00211769
7.15385e-05
-0.00062269
0.0014223
2.17766e-05
-0.000558494
0.000812577
-1.83984e-05
0.000258089
-2.67478e-05
-0.000649386
0.000965563
0.00178044
-0.00153187
0.000933764
0.00190399
-0.00197786
0.00547734
0.000708891
-0.00134505
0.00479761
-9.96266e-05
-0.00102613
0.00346875
0.000366216
-0.0009868
0.00253663
0.000277465
-0.000897873
0.00191984
0.000108381
-0.00079045
0.0012638
5.1346e-05
-0.000714779
0.000737863
-6.41567e-07
0.000238997
-2.10853e-05
-0.000851557
0.000113791
0.00179962
-0.00190386
0.00054557
0.00169826
-0.00241339
0.00482825
0.00104473
-0.00165131
0.00397052
4.43224e-05
-0.00130628
0.00260738
0.000482505
-0.00116394
0.00217153
0.000221176
-0.00104659
0.00165211
0.000149792
-0.000946127
0.00107571
8.77942e-05
-0.000853792
0.000631159
1.45947e-05
0.000209519
-1.32038e-05
-0.00100377
-0.000246462
0.00168682
-0.00228118
0.000433486
0.00161755
-0.00272252
0.00383173
0.00127366
-0.00178208
0.00273827
0.00024145
-0.00157316
0.00197051
0.000402315
-0.00134173
0.00167327
0.000265005
-0.00116536
0.00129033
0.000184683
-0.00107878
0.000867244
0.000121971
-0.000972455
0.000493357
3.16087e-05
0.000170465
-5.22571e-06
-0.0012262
-0.00040396
0.00162785
-0.00262399
0.000244997
0.00179043
-0.00267095
0.00254492
0.00114797
-0.00182577
0.00148691
0.000304759
-0.00171933
0.00149752
0.000349074
-0.00147026
0.00111398
0.000306613
-0.00128013
0.000868304
0.000231013
-0.00117717
0.000620207
0.000144094
-0.00106767
0.000335871
4.80439e-05
0.000121069
1.80039e-06
-0.00135256
-0.000263373
0.00158756
-0.00275325
9.883e-05
0.00176906
-0.00247798
0.00130496
0.000761042
-0.00195651
0.000599507
0.00027463
-0.00174768
0.000854413
0.000418381
-0.00154228
0.000573475
0.000330374
-0.00137606
0.000431074
0.000270051
-0.00124051
0.000325886
0.000158728
-0.00113455
0.00016934
6.05738e-05
6.31052e-05
6.46821e-06
-0.00140458
4.56972e-07
0.00153864
-0.00275346
-2.3555e-07
0.00167208
-0.00233405
1.36592e-07
0.00060321
-0.00216881
-1.36129e-07
0.000347283
-0.00177656
-4.36307e-08
0.000446518
-0.00158002
-3.36642e-08
0.000371888
-0.00142813
-1.67874e-08
0.000278183
-0.00127168
-1.29537e-08
0.000169382
-0.00116908
-8.2355e-09
6.67233e-05
-5.5805e-09
9.03331e-06
-0.00140455
0.000264143
0.00153854
-0.00275344
-9.92613e-05
0.00167206
-0.00233401
-0.00130465
0.000603152
-0.00216881
-0.00059974
0.000347294
-0.00177655
-0.000854505
0.000446514
-0.00158001
-0.000573537
0.000371889
-0.00142813
-0.000431106
0.000278184
-0.00127168
-0.00032591
0.000169383
-0.00116907
-0.000169354
6.67235e-05
-6.31144e-05
9.03292e-06
-0.00135239
0.00040395
0.00158732
-0.00275326
-0.000245184
0.001769
-0.00247792
-0.0025445
0.000760855
-0.00195652
-0.00148704
0.000274582
-0.00174765
-0.00149762
0.000418349
-0.00154227
-0.00111403
0.000330368
-0.00137605
-0.000868331
0.000270052
-0.0012405
-0.00062023
0.000158728
-0.00113454
-0.000335883
6.05744e-05
-0.000121077
6.4674e-06
-0.0012261
0.000246363
0.00162778
-0.00262402
-0.000433535
0.00179041
-0.00267092
-0.00383132
0.00114792
-0.00182577
-0.00273825
0.000304648
-0.00171929
-0.00197054
0.000348974
-0.00147023
-0.0016733
0.000306598
-0.00128011
-0.00129035
0.000231016
-0.00117715
-0.000867262
0.000144094
-0.00106766
-0.000493363
4.80452e-05
-0.000170468
1.79894e-06
-0.00100377
-0.000113794
0.00168676
-0.0022812
-0.000545632
0.00161757
-0.00272253
-0.00482795
0.00127373
-0.00178206
-0.00397041
0.000241323
-0.00157313
-0.00260726
0.000402145
-0.0013417
-0.00217153
0.000264979
-0.00116533
-0.00165212
0.00018468
-0.00107876
-0.00107572
0.000121971
-0.000972439
-0.000631161
3.161e-05
-0.000209518
-5.22759e-06
-0.000851561
-0.000965436
0.00179951
-0.00190388
-0.000933789
0.00169823
-0.0024134
-0.00547725
0.00104488
-0.0016512
-0.00479758
4.42794e-05
-0.00130628
-0.00346911
0.00048313
-0.0011639
-0.0025367
0.000221218
-0.00104656
-0.00191984
0.000149784
-0.000946101
-0.0012638
8.77933e-05
-0.000853773
-0.000737857
1.45958e-05
-0.00023899
-1.32062e-05
-0.000649432
-0.00200138
0.00178048
-0.00153194
-0.00170808
0.00190398
-0.00197791
-0.00585305
0.000708971
-0.00134502
-0.00533861
-9.98001e-05
-0.00102603
-0.00419666
0.000365693
-0.00098674
-0.00285656
0.00027741
-0.000897832
-0.00211766
0.000108366
-0.000790421
-0.00142229
5.13422e-05
-0.000714757
-0.000812564
-6.42105e-07
-0.000258077
-2.10887e-05
-0.00045718
-0.00282692
0.00134728
-0.00112645
-0.0024875
0.00172363
-0.00143872
-0.00602047
0.000338948
-0.000918584
-0.00569459
-0.000170771
-0.000781238
-0.00447182
0.000128379
-0.000811528
-0.00320838
0.000375731
-0.000711937
-0.00228926
7.15198e-05
-0.000622657
-0.00153302
2.17691e-05
-0.00055847
-0.000857957
-1.84026e-05
-0.000264594
-2.67524e-05
-0.000242044
-0.00325072
0.000966662
-0.000765421
-0.00309057
0.00132191
-0.00086855
-0.00623721
-2.10628e-05
-0.00055982
-0.00580488
-0.000195504
-0.000557263
-0.00450557
2.91716e-05
-0.000593156
-0.00350195
0.000319653
-0.000517586
-0.00245996
9.39707e-05
-0.000444764
-0.00160848
2.83912e-06
-0.000392022
-0.000879739
-3.05405e-05
-0.00025828
-2.88308e-05
-5.74247e-05
-0.00405119
0.000986762
-0.000278025
-0.00384224
0.0011305
-0.000297518
-0.00627541
-0.0001454
-0.00029672
-0.00567279
-0.000135022
-0.000323368
-0.00451963
4.05583e-05
-0.000343728
-0.00360854
0.000125768
-0.000326209
-0.00260549
0.000126736
-0.000266889
-0.00167768
9.6706e-06
-0.000224994
-0.000891119
-3.02398e-05
-0.000244229
-2.46888e-05
6.27732e-05
0.000968242
0.0002033
0.000901046
9.07735e-05
-5.86193e-05
-7.11885e-05
-3.02243e-05
-0.000100805
2.99301e-05
-0.000118328
2.02793e-05
-0.000124987
5.66151e-05
-0.000104558
2.3139e-05
-8.04556e-05
-7.83865e-06
-1.07911e-05
0.000247829
0.00155878
0.000885659
0.000384436
0.00194524
0.000702857
0.000160729
0.00420769
-6.80139e-05
-1.56382e-05
0.00515883
-2.3234e-06
-7.1719e-05
0.00466665
6.4043e-05
-0.000131483
0.00394605
5.96485e-05
-0.000149402
0.00288821
0.000118315
-0.000115803
0.00173383
6.46374e-05
-7.63051e-05
0.000852397
-3.35339e-05
0.000188644
-5.17405e-05
0.000237744
0.00195228
0.00111128
0.000307666
0.00253793
0.00110651
0.000274622
0.00451041
-0.000230985
-8.13182e-05
0.00547214
-8.93058e-05
-0.000253248
0.00472233
0.000156407
-0.000324514
0.00393851
0.000201581
-0.000327852
0.00268169
0.000329736
-0.000274259
0.00164657
4.23197e-05
-0.000216593
0.000867269
-0.000102456
0.000228923
-9.34713e-05
0.000182641
0.00199364
0.00112873
0.000201256
0.00257986
0.00138712
0.000174182
0.00471407
6.04524e-05
-0.00011565
0.00569734
-0.000131971
-0.000387588
0.00484011
0.00018039
-0.000490022
0.00377519
0.00056795
-0.000493157
0.00242307
0.000349402
-0.000461495
0.00160545
1.217e-05
-0.000392785
0.000874471
-0.000105986
0.000256147
-0.000102463
0.000102118
0.00180964
0.00157025
6.31073e-05
0.00235864
0.0019197
-3.38777e-05
0.00496195
0.000435844
-0.000240758
0.00580827
-8.66348e-05
-0.000471906
0.00496414
0.000226433
-0.000657631
0.00341326
0.000891435
-0.000701641
0.00221971
0.000314986
-0.000653863
0.00152881
5.05449e-05
-0.000572248
0.000847638
-7.27994e-05
0.000263815
-9.51227e-05
-5.74884e-05
0.0012229
0.00230916
-0.000212197
0.00173186
0.00261496
-0.000560929
0.00498384
0.00092894
-0.000643571
0.00575724
5.21392e-05
-0.000634843
0.00472483
0.000563228
-0.000822573
0.00290108
0.000954669
-0.000923377
0.00206639
0.00035887
-0.000834525
0.00137789
0.000113026
-0.000743106
0.000786881
-3.10581e-05
0.000253024
-7.97791e-05
-0.000348252
0.000361344
0.00286605
-0.00067272
0.000853522
0.00282619
-0.00110803
0.00476757
0.00151602
-0.00109041
0.00554223
0.000252667
-0.000929491
0.00390999
0.00109309
-0.00104063
0.00234129
0.000878178
-0.00110771
0.00184265
0.000436018
-0.00100542
0.00117717
0.000185463
-0.000898091
0.00068301
1.12252e-05
0.000226149
-5.9715e-05
-0.000675944
-0.000315079
0.00287004
-0.00121099
0.000430423
0.00254934
-0.00165885
0.00430279
0.00204395
-0.0013038
0.00485338
0.000559996
-0.00116416
0.00274516
0.00134447
-0.00130439
0.0018683
0.000863516
-0.00124174
0.00144527
0.000513786
-0.00116016
0.000957788
0.000258709
-0.00103038
0.000539121
4.5659e-05
0.00018647
-3.96679e-05
-0.000933305
-0.000442705
0.00274934
-0.00186717
0.000281577
0.00259961
-0.00223515
0.00341304
0.00224249
-0.00143989
0.00333711
0.000952619
-0.00132969
0.00165617
0.00128995
-0.00150621
0.00139293
0.000934932
-0.00136078
0.00093538
0.000588683
-0.00127881
0.000703252
0.000315318
-0.0011364
0.000366443
7.81175e-05
0.000134826
-2.23275e-05
-0.00121751
-0.000287572
0.00270847
-0.00236587
0.000180857
0.00282907
-0.0022677
0.0019239
0.00191201
-0.00152208
0.0014364
0.00125855
-0.00154632
0.000813472
0.00125091
-0.00158242
0.000749422
0.000981985
-0.00148162
0.000435165
0.000661956
-0.00135167
0.000380237
0.000350228
-0.0012122
0.00018325
0.000103979
7.1396e-05
-9.5252e-06
-0.0013365
6.95759e-08
0.00264452
-0.00242962
-6.5474e-08
0.00285793
-0.00183607
2.33758e-07
0.00160729
-0.00156443
4.95824e-08
0.00133794
-0.00163769
-5.92174e-08
0.00129118
-0.00156526
6.2545e-09
0.00101006
-0.00156302
-1.2194e-09
0.000703176
-0.00138399
-3.10238e-10
0.000368955
-0.00125179
-5.39062e-09
0.000117417
-7.07996e-09
-1.88201e-06
-0.00133648
0.000287725
0.00264453
-0.00242961
-0.000180983
0.00285784
-0.00183601
-0.00192328
0.00160702
-0.00156443
-0.00143615
0.00133786
-0.00163768
-0.000813593
0.00129116
-0.00156525
-0.000749423
0.00101007
-0.00156302
-0.000435163
0.000703181
-0.00138398
-0.000380241
0.000368959
-0.00125179
-0.000183259
0.000117419
-7.14084e-05
-1.88317e-06
-0.00121741
0.000442956
0.00270835
-0.00236586
-0.000281766
0.00282903
-0.0022676
-0.00341225
0.00191155
-0.00152207
-0.00333669
0.00125844
-0.00154632
-0.00165634
0.00125088
-0.0015824
-0.00139295
0.000981968
-0.00148161
-0.000935369
0.000661962
-0.00135166
-0.000703263
0.000350235
-0.00121219
-0.000366448
0.000103982
-0.000134836
-9.52813e-06
-0.000933214
0.00031542
0.00274921
-0.00186716
-0.000430498
0.00259959
-0.00223518
-0.0043019
0.00224238
-0.00143993
-0.00485307
0.000952509
-0.00132971
-0.00274585
0.0012899
-0.00150619
-0.00186832
0.00093489
-0.00136075
-0.00144528
0.000588692
-0.00127878
-0.000957801
0.000315331
-0.00113639
-0.000539123
7.81246e-05
-0.000186474
-2.23317e-05
-0.000675941
-0.000360824
0.00286985
-0.00121097
-0.000853514
0.00254925
-0.00165889
-0.00476677
0.00204406
-0.00130406
-0.00554177
0.000559875
-0.00116418
-0.00390778
0.00134455
-0.00130434
-0.00234128
0.000863457
-0.00124169
-0.00184267
0.000513791
-0.00116013
-0.00117717
0.000258725
-0.00103037
-0.00068301
4.5667e-05
-0.000226149
-3.96731e-05
-0.000348298
-0.00122245
0.00286609
-0.000672778
-0.00173182
0.00282619
-0.00110833
-0.00498344
0.00151618
-0.00108929
-0.00575704
0.000252502
-0.000929836
-0.00472663
0.0010923
-0.00104056
-0.00290138
0.000878068
-0.00110765
-0.00206639
0.000436019
-0.00100539
-0.00137789
0.00018548
-0.000898069
-0.000786875
1.12347e-05
-0.000253018
-5.97225e-05
-5.74984e-05
-0.00180939
0.0023094
-0.000212251
-0.00235874
0.00261513
-0.000560958
-0.0049618
0.000928985
-0.000643993
-0.00580788
5.20211e-05
-0.000634398
-0.00496348
0.000563438
-0.000822469
-0.00341321
0.000954608
-0.000923309
-0.00221969
0.000358868
-0.000834484
-0.0015288
0.000113035
-0.000743082
-0.000847627
-3.1048e-05
-0.000263803
-7.97902e-05
0.000102112
-0.00199346
0.00157035
6.30474e-05
-0.00257997
0.00191977
-3.3982e-05
-0.00471414
0.000435763
-0.000240734
-0.00569708
-8.67858e-05
-0.000471699
-0.0048399
0.000226331
-0.000657479
-0.00377506
0.000891352
-0.000701555
-0.002423
0.000314977
-0.000653815
-0.0016054
5.0545e-05
-0.00057222
-0.000874444
-7.27981e-05
-0.000256127
-9.51387e-05
0.00018264
-0.00195226
0.00112874
0.00020121
-0.00253813
0.00138716
0.000174058
-0.00451055
6.03573e-05
-0.000115614
-0.005472
-0.000132087
-0.0003875
-0.00472217
0.000180311
-0.000489894
-0.00393837
0.000567879
-0.00049306
-0.00268158
0.000349388
-0.000461442
-0.00164648
1.21689e-05
-0.000392757
-0.000867218
-0.000105991
-0.000228892
-0.000102485
0.000237773
-0.00155904
0.00111123
0.000307696
-0.00194567
0.00110646
0.000274611
-0.00420784
-0.000231149
-8.13064e-05
-0.00515868
-8.93695e-05
-0.000253231
-0.0046665
0.0001564
-0.000324453
-0.00394594
0.000201554
-0.000327778
-0.0028881
0.000329719
-0.00027421
-0.00173373
4.23204e-05
-0.000216566
-0.000852322
-0.00010246
-0.0001886
-9.3493e-05
0.000247855
0.000885597
0.000384519
0.000702733
0.000160746
-6.80926e-05
-1.56466e-05
-2.34939e-06
-7.1731e-05
6.40341e-05
-0.000131489
5.96408e-05
-0.000149389
0.000118304
-0.00011578
6.46307e-05
-7.62861e-05
-3.35367e-05
-5.17542e-05
0.000286682
-0.00127802
0.000554764
0.000434722
-0.000579542
0.000373895
0.00022614
0.00286315
9.84739e-05
4.89212e-05
0.00489329
8.62261e-05
-3.93455e-05
0.00514661
0.000123409
-0.000140275
0.00471661
0.00013838
-0.000192352
0.00373205
0.000167353
-0.000142416
0.0021014
0.00014363
-7.22011e-05
0.000805023
-9.75553e-05
3.52711e-05
-0.000182693
0.000510041
-0.00020079
0.000992476
0.00093711
0.000520151
0.000930504
0.00067681
0.00288543
0.000179498
0.000149172
0.00515416
0.000181053
-0.000129851
0.00523184
0.000349525
-0.000254113
0.00470206
0.00033544
-0.000282607
0.00350999
0.000561095
-0.000268768
0.00191361
0.000208838
-0.000205842
0.000871618
-0.000231093
0.00015067
-0.000290607
0.00059654
0.00119124
0.00156187
0.00105311
0.00187114
0.00159374
0.00107334
0.00332009
0.000460838
0.000270295
0.00555862
0.000304095
-0.000196554
0.00535732
0.00051914
-0.0002931
0.00462049
0.000727702
-0.000388221
0.00311416
0.000805099
-0.000486288
0.00184702
0.000173809
-0.000408971
0.000940737
-0.000251417
0.000235241
-0.000302275
0.000473614
0.00148866
0.00181065
0.000741811
0.00221907
0.00205969
0.00114195
0.00390792
0.000881634
0.000413732
0.00595066
0.000409318
-0.00013525
0.00552324
0.000604258
-0.00035455
0.00435716
0.00130913
-0.000611075
0.00272445
0.000936455
-0.000732069
0.00178284
0.000232735
-0.000621273
0.000940314
-0.000182825
0.000276378
-0.000272384
0.000454592
0.00132209
0.00200466
0.000576912
0.00227423
0.00248024
0.000808441
0.0041259
0.00130733
0.000298694
0.0061447
0.000623048
-9.37041e-05
0.0055474
0.000914659
-0.00044585
0.00378361
0.00180708
-0.000890933
0.00244767
0.00105968
-0.000958744
0.00163954
0.000319343
-0.000826542
0.000896123
-0.000119426
0.000283904
-0.000233248
0.000332977
0.000655705
0.00304504
0.000336587
0.00180301
0.00330474
0.000309332
0.00429516
0.00170621
-7.64625e-05
0.00613939
0.000874125
-0.00027909
0.00504266
0.0016982
-0.000656344
0.00292256
0.00204578
-0.0011534
0.00219006
0.00116784
-0.00116416
0.00140781
0.000420754
-0.00101745
0.00079754
-3.79671e-05
0.000259818
-0.00018641
-0.000135153
-5.04251e-05
0.00365782
-0.000121548
0.000835326
0.00350636
1.26056e-05
0.00411446
0.00234301
-0.000255499
0.00584987
0.00121924
-0.000499028
0.00407112
0.00245063
-0.00096204
0.00205358
0.00213231
-0.00135162
0.00179449
0.00126921
-0.00135042
0.00112036
0.000535739
-0.00118121
0.000643984
2.82898e-05
0.000213846
-0.000143765
-0.000484484
-0.000418003
0.00363983
-0.000770723
0.000272745
0.00321209
-0.000886789
0.00342998
0.00294653
-0.000440023
0.00461232
0.00174139
-0.000527736
0.00264739
0.0027086
-0.0012186
0.00140219
0.00220008
-0.00149753
0.0012383
0.00138781
-0.00150208
0.0007958
0.000633379
-0.00131229
0.000450407
7.96442e-05
0.000151869
-0.00010911
-0.000833573
-0.000368506
0.00356481
-0.00162133
0.000169832
0.00339089
-0.00162561
0.00211261
0.00302972
-0.000621165
0.00245441
0.0023345
-0.000629588
0.00106208
0.00269066
-0.00135005
0.000795766
0.00221601
-0.0016165
0.000608139
0.00151749
-0.0016043
0.000419236
0.000701965
-0.00140518
0.000230881
0.000121651
7.83548e-05
-8.52929e-05
-0.00112553
-1.43731e-07
0.00349532
-0.00209891
1.41349e-07
0.00369211
-0.00131161
8.43602e-07
0.00270585
-0.000477495
8.67767e-07
0.00271809
-0.000904092
1.66925e-07
0.00264003
-0.00139081
1.19889e-07
0.00219285
-0.00168923
7.38294e-08
0.00156554
-0.00165616
3.8871e-08
0.000741553
-0.00145333
1.06321e-08
0.000142464
-9.34416e-09
-7.33803e-05
-0.00112554
0.000368344
0.00349545
-0.00209896
-0.000169715
0.00369214
-0.00131152
-0.00211122
0.00270567
-0.000477415
-0.00245271
0.0027181
-0.000904132
-0.00106157
0.00263999
-0.00139079
-0.000795586
0.00219287
-0.00168922
-0.000607985
0.00156555
-0.00165615
-0.000419168
0.000741567
-0.00145333
-0.00023086
0.00014247
-7.8372e-05
-7.33822e-05
-0.000833479
0.000418438
0.00356469
-0.00162139
-0.000272658
0.00339096
-0.0016257
-0.00342881
0.00302949
-0.000621211
-0.00461087
0.00233461
-0.000629681
-0.00264654
0.00269054
-0.00135004
-0.00140211
0.00221599
-0.00161648
-0.00123819
0.00151753
-0.00160428
-0.000795746
0.000701992
-0.00140518
-0.000450386
0.00012166
-0.000151883
-8.53006e-05
-0.000484489
5.11944e-05
0.00363951
-0.000770798
-0.000834942
0.00321182
-0.000887056
-0.00411314
0.00294659
-0.000440076
-0.00584885
0.00174146
-0.000527765
-0.00407047
0.00270841
-0.00121858
-0.00205353
0.00220004
-0.00149749
-0.00179444
0.00138785
-0.00150206
-0.00112032
0.00063343
-0.00131228
-0.000643967
7.96668e-05
-0.000213853
-0.000109121
-0.000135203
-0.000654989
0.00365772
-0.00012165
-0.00180251
0.00350619
1.25411e-05
-0.00429423
0.00234325
-0.000255405
-0.0061386
0.0012193
-0.000499017
-0.00504277
0.00245052
-0.000962013
-0.00292253
0.00213226
-0.00135156
-0.00219007
0.00126925
-0.00135039
-0.00140779
0.000535796
-0.0011812
-0.000797526
2.83149e-05
-0.000259819
-0.00014378
0.000332997
-0.00132149
0.00304511
0.000336492
-0.00227396
0.00330499
0.000309258
-0.00412534
0.0017064
-7.64099e-05
-0.00614413
0.000874018
-0.000279045
-0.00554699
0.00169818
-0.000656272
-0.00378366
0.00204572
-0.00115333
-0.00244772
0.00116788
-0.00116412
-0.00163954
0.000420818
-0.00101743
-0.000896125
-3.79176e-05
-0.000283899
-0.000186429
0.000454681
-0.00148795
0.00200465
0.000576865
-0.00221875
0.00248045
0.000808296
-0.00390743
0.00130729
0.000298721
-0.0059502
0.000622841
-9.34934e-05
-0.00552292
0.000914566
-0.000445695
-0.00435712
0.00180699
-0.000890833
-0.00272449
0.00105972
-0.000958689
-0.00178284
0.000319399
-0.000826516
-0.000940312
-0.00011939
-0.000276368
-0.000233276
0.000473622
-0.0011904
0.0018105
0.000741678
-0.00187078
0.0020597
0.00114186
-0.00331952
0.000881497
0.000413811
-0.00555822
0.0004091
-0.000135005
-0.00535701
0.000603998
-0.000354326
-0.00462035
0.00130896
-0.000610922
-0.00311413
0.00093646
-0.000731993
-0.00184699
0.000232784
-0.00062124
-0.000940711
-0.000182804
-0.00023522
-0.000272428
0.000596554
0.000201566
0.00156198
0.00105299
-0.00051995
0.00159374
0.00107338
-0.00288486
0.000460682
0.000270383
-0.00515378
0.00030398
-0.00019641
-0.00523156
0.00051904
-0.000292907
-0.00470189
0.00072755
-0.000388033
-0.0035099
0.000805032
-0.000486188
-0.00191352
0.000173844
-0.000408926
-0.000871549
-0.00025141
-0.00015062
-0.00030234
0.000510219
0.00127865
0.000992559
0.000937182
0.000579817
0.000930419
0.000676928
-0.00286265
0.000179391
0.000149242
-0.00489289
0.000181017
-0.000129783
-0.00514634
0.000349531
-0.000254006
-0.00471644
0.00033539
-0.000282465
-0.00373195
0.000561032
-0.000268665
-0.00210128
0.000208843
-0.000205792
-0.000804906
-0.000231091
-3.51812e-05
-0.000290675
0.0002868
0.000554823
0.000434853
0.000373892
0.000226197
9.84465e-05
4.89364e-05
8.62018e-05
-3.93415e-05
0.000123393
-0.00014027
0.000138368
-0.000192323
0.000167333
-0.000142368
0.000143606
-7.21688e-05
-9.757e-05
-0.000182749
0.000132566
-7.02874e-06
0.000348819
0.00027464
0.00082656
0.000299092
0.00020167
0.00379332
0.000197782
7.16578e-05
0.00569321
0.000166256
-1.53573e-05
0.00626512
0.000181591
-0.000127182
0.00610737
0.000199251
-0.000228392
0.0053438
0.000184411
-0.000154505
0.00344907
0.00020654
-2.21576e-05
0.00104671
-0.000144276
-0.000322073
-0.000557947
0.000383339
-0.000151865
0.000907917
0.00082459
0.000560482
0.000881965
0.00064436
0.0035715
0.000589112
0.000232779
0.00579727
0.000488834
-2.52727e-05
0.00633318
0.000538593
-0.000214773
0.00612875
0.000497495
-0.000204122
0.00522405
0.000638111
-0.000119771
0.00299428
0.00052335
-9.96462e-05
0.00106776
-0.000269857
-2.23702e-06
-0.000717724
0.000659482
2.80988e-05
0.00162851
0.00135676
0.000808058
0.00166715
0.00113534
0.00332449
0.00105875
0.000412894
0.00597157
0.00085611
-3.77917e-05
0.00645788
0.000842283
-0.000143285
0.00610886
0.000834306
-0.000144111
0.00483293
0.00111299
-0.000363373
0.00266868
0.00068533
-0.000381588
0.00115632
-0.000316221
0.000196015
-0.000724527
0.000785768
0.00106068
0.00248726
0.00159145
0.00190024
0.00252082
0.00167944
0.00347998
0.0015534
0.000656874
0.00632845
0.00112732
3.19623e-05
0.00657712
0.00110396
-6.75714e-05
0.00597186
0.0014798
-0.000262409
0.00416338
0.00168038
-0.000708082
0.00245271
0.000869678
-0.000681932
0.00115728
-0.000210876
0.000289172
-0.000629176
0.000619646
0.00170871
0.00254661
0.00113431
0.00234611
0.00284987
0.00177264
0.00382507
0.0021912
0.000853713
0.00671089
0.00143203
0.000244727
0.00660901
0.00145754
-6.85188e-06
0.00546219
0.00242161
-0.000559908
0.00346476
0.00220231
-0.00104659
0.00221836
0.00101507
-0.000963923
0.00110427
-0.000155298
0.000328328
-0.000551113
0.000617577
0.00139168
0.00282615
0.000840388
0.00251833
0.00307547
0.0013686
0.0042231
0.00236683
0.000697414
0.00690105
0.00184338
0.000351928
0.00620825
0.00233259
-2.74098e-05
0.00442641
0.00327992
-0.000914983
0.00284379
0.00253696
-0.00134909
0.00191483
0.00112501
-0.00122586
0.000985054
-5.36215e-05
0.000312273
-0.000451844
0.0004255
0.000586408
0.00397884
0.000533428
0.00188
0.00407901
0.000875592
0.00414559
0.00275089
0.000595989
0.00674791
0.00221838
0.000276312
0.00532307
0.0035297
-0.000227006
0.00306307
0.0038199
-0.00121422
0.00220188
0.0027386
-0.00160646
0.00152291
0.00126091
-0.00145267
0.00079831
4.49784e-05
0.0002631
-0.000375288
-0.000102061
-9.99773e-05
0.00441315
1.66642e-05
0.000799582
0.00414839
0.000433088
0.00359212
0.00351673
0.000767016
0.00572549
0.00276794
0.000412915
0.00399509
0.0042577
-0.000453411
0.00190497
0.00407823
-0.00142279
0.00147778
0.00290169
-0.00181188
0.00107465
0.00140026
-0.00163355
0.000560894
0.000118815
0.000189393
-0.000314038
-0.000492306
-0.000304119
0.0043151
-0.000784339
0.000271829
0.00396686
-0.000556039
0.00232658
0.00382283
0.000530395
0.00348756
0.00355071
0.000583198
0.00190795
0.00454974
-0.00057069
0.000981453
0.00417349
-0.00155383
0.000742751
0.00303951
-0.00195485
0.000563754
0.00153542
-0.00176363
0.00028785
0.00018036
9.84403e-05
-0.000272067
-0.000903939
-1.81085e-07
0.0042122
-0.0017182
2.33054e-07
0.00437925
-0.000830235
7.59466e-07
0.00384646
0.000800123
1.50026e-06
0.00437784
0.000514211
5.79588e-07
0.00460857
-0.000665422
2.87108e-07
0.00416128
-0.00163309
2.05152e-07
0.00307672
-0.00202763
1.31105e-07
0.00161538
-0.00183232
5.77207e-08
0.0002117
-1.0195e-08
-0.000254878
-0.00090392
0.000304023
0.00421228
-0.00171829
-0.000271353
0.00437932
-0.000830219
-0.00232522
0.00384639
0.000800291
-0.00348494
0.00437809
0.000514209
-0.00190658
0.00460849
-0.000665435
-0.000980975
0.00416119
-0.00163308
-0.00074236
0.00307672
-0.00202762
-0.000563501
0.00161541
-0.00183232
-0.000287736
0.000211713
-9.84597e-05
-0.00025488
-0.000492265
0.000100239
0.0043147
-0.000784461
-0.00079881
0.00396671
-0.000556323
-0.00359083
0.0038226
0.000530326
-0.00572371
0.0035512
0.000583165
-0.00399388
0.00454985
-0.000570709
-0.00190453
0.0041735
-0.00155381
-0.00147745
0.00303955
-0.00195484
-0.00107443
0.00153548
-0.00176362
-0.000560789
0.000180383
-0.000189407
-0.000272082
-0.000102139
-0.000585926
0.00441281
1.65768e-05
-0.00187903
0.00414788
0.000432892
-0.0041442
0.00351678
0.000767105
-0.00674636
0.00276839
0.000413013
-0.00532204
0.00425785
-0.000453436
-0.00306259
0.00407831
-0.00142279
-0.00220163
0.00290177
-0.00181186
-0.00152274
0.00140036
-0.00163354
-0.000798227
0.00011887
-0.000263109
-0.000314057
0.000425488
-0.00139115
0.00397864
0.000533387
-0.00251768
0.00407915
0.000875562
-0.00422169
0.00275091
0.000596142
-0.00689979
0.00221875
0.00027644
-0.00620742
0.00352971
-0.000227026
-0.00442591
0.00382
-0.00121422
-0.00284361
0.00273869
-0.00160643
-0.00191474
0.00126102
-0.00145266
-0.000984993
4.50376e-05
-0.000312277
-0.000375318
0.000617789
-0.00170808
0.00282584
0.000840461
-0.00234554
0.00307582
0.00136844
-0.00382423
0.00236655
0.000697434
-0.00670989
0.00184354
0.000352136
-0.00660798
0.00233234
-2.7372e-05
-0.00546176
0.00328009
-0.000914983
-0.00346464
0.0025371
-0.00134906
-0.00221835
0.00112512
-0.00122584
-0.00110425
-5.35171e-05
-0.000328336
-0.000451877
0.000619768
-0.00105995
0.00254648
0.00113413
-0.00189959
0.00284997
0.00177258
-0.00347895
0.00219121
0.000853844
-0.00632768
0.00143202
0.000244944
-0.00657654
0.00145777
-6.73567e-06
-0.00597153
0.00242172
-0.000559855
-0.0041633
0.00220246
-0.00104654
-0.00245274
0.00101517
-0.000963893
-0.00115729
-0.000155218
-0.000289183
-0.000551166
0.00078586
-2.68622e-05
0.00248749
0.00159135
-0.000806928
0.00252099
0.00167962
-0.00332336
0.00155335
0.000657085
-0.00597092
0.00112722
3.21642e-05
-0.00645746
0.00110388
-6.7343e-05
-0.00610857
0.00147966
-0.000262221
-0.00483285
0.00168043
-0.000707971
-0.00266867
0.000869765
-0.000681873
-0.00115632
-0.000210811
-0.000196012
-0.000629262
0.000659535
0.00015345
0.00162874
0.00135691
-0.00055909
0.00166723
0.00113557
-0.00357045
0.00105868
0.000413077
-0.00579664
0.000856081
-3.76055e-05
-0.00633284
0.000842258
-0.000143065
-0.0061285
0.000834159
-0.000143842
-0.00522396
0.00111286
-0.000363183
-0.00299421
0.000685384
-0.000381485
-0.00106771
-0.000316169
2.2943e-06
-0.000724666
0.000383472
8.49799e-06
0.000908063
0.000824776
-0.000825367
0.000882062
0.00064453
-0.00379242
0.000589178
0.000232899
-0.00569263
0.000488896
-2.51701e-05
-0.00626481
0.000538644
-0.000214653
-0.00610717
0.00049748
-0.000203913
-0.00534374
0.000638003
-0.000119544
-0.00344902
0.000523351
-9.94947e-05
-0.00104659
-0.000269849
0.000322255
-0.000717886
0.000132628
0.000348897
0.000274719
0.000299143
0.000201723
0.000197788
7.16861e-05
0.000166245
-1.53412e-05
0.000181573
-0.000127161
0.000199236
-0.000228344
0.000184379
-0.000154396
0.000206493
-2.20283e-05
-0.000144325
-0.000558122
9.13234e-05
0.00306852
0.000361036
0.000187902
0.00382406
0.000316145
0.000162651
0.0057987
0.000241423
7.48452e-05
0.0072864
0.000213514
-4.94064e-06
0.00792307
0.000216827
-9.01291e-05
0.00786404
0.000225757
-0.0002402
0.00733859
0.000193306
-0.000202105
0.00575433
0.000151817
7.33196e-05
0.00238168
-0.000139606
-0.000658746
-0.00123607
0.000278664
0.00261808
0.00108548
0.000615513
0.00332634
0.00104405
0.000520856
0.00561134
0.000870753
0.000229372
0.00734564
0.000721041
1.12127e-05
0.0079836
0.000695011
-0.000212984
0.00796056
0.000617875
-0.000243961
0.00742409
0.000554474
1.41029e-05
0.00526177
0.00063753
0.000100503
0.00201114
-3.85229e-05
-9.56495e-05
-0.0012514
0.000495572
0.00195028
0.00186158
0.00104916
0.00262546
0.00187535
0.00091045
0.00529431
0.00151929
0.000415085
0.00746924
0.00122657
5.556e-05
0.00813892
0.0010435
-0.000160201
0.00805068
0.000940458
-4.81116e-05
0.0073113
0.00102949
-8.06286e-05
0.00455974
0.00120149
-0.000240104
0.00184128
1.60308e-05
0.000193834
-0.001216
0.000758092
0.00149914
0.00283306
0.00155883
0.00235865
0.00267571
0.00140686
0.0050834
0.00201726
0.00062926
0.0077266
0.00164843
8.64928e-05
0.00834133
0.00142291
1.92331e-05
0.00797083
0.00154782
7.45451e-05
0.00662986
0.00204253
-0.000410485
0.00385503
0.00187521
-0.00066169
0.00166812
0.000209748
0.000305403
-0.00103369
0.000844324
0.00188049
0.0037997
0.0018134
0.00258217
0.00395366
0.00196693
0.00488707
0.00299607
0.000930046
0.00803185
0.00217474
0.000265402
0.00840631
0.00200594
0.000276067
0.00745771
0.00271837
4.29857e-06
0.00547247
0.00327309
-0.000832207
0.00321046
0.00229789
-0.00106458
0.00147858
0.000228428
0.000355151
-0.000931085
0.000658481
0.00206688
0.00356411
0.00138686
0.00298063
0.0037486
0.00200136
0.00495516
0.00380384
0.000969818
0.00810917
0.00297357
0.000552336
0.00794831
0.00304929
0.000508071
0.00624048
0.00422404
-0.000236149
0.00426024
0.004131
-0.00125205
0.00261484
0.00251277
-0.00145435
0.00126026
0.000299851
0.000329209
-0.000762899
0.000648707
0.00135835
0.00408329
0.000931787
0.002698
0.0043743
0.0015589
0.00468558
0.00411408
0.000959062
0.00776097
0.00363693
0.000749298
0.00686118
0.00461077
0.000526354