/*--------------------------------*- C++ -*----------------------------------*\
  =========                 |
  \\      /  F ield         | OpenFOAM: The Open Source CFD Toolbox
   \\    /   O peration     | Website:  https://openfoam.org
    \\  /    A nd           | Version:  7
     \\/     M anipulation  |
\*---------------------------------------------------------------------------*/
FoamFile
{
    version     2.0;
    format      ascii;
    class       volScalarField;
    location    "1";
    object      qem;
}
// * * * * * * * * * * * * * * * * * * * * * * * * * * * * * * * * * * * * * //

dimensions      [1 0 -3 0 0 0 0];

internalField   uniform 0;

boundaryField
{
    side
    {
        type            calculated;
        value           nonuniform List<scalar> 
800
(
-447.177
-447.177
-447.177
-447.177
-447.177
-447.177
-447.177
-447.177
-447.177
-447.177
-447.177
-447.177
-447.177
-447.177
-447.177
-447.177
-447.177
-447.177
-447.177
-447.177
-447.177
-447.177
-447.177
-447.177
-447.177
-447.177
-447.177
-447.177
-447.177
-447.177
-447.177
-447.177
-447.177
-447.177
-447.177
-447.177
-447.177
-447.177
-447.177
-447.177
-447.177
-447.177
-447.177
-447.177
-447.177
-447.177
-447.177
-447.177
-447.177
-447.177
-447.177
-447.177
-447.177
-447.177
-447.177
-447.177
-447.177
-447.177
-447.177
-447.177
-449.442
-450.218
-447.177
-447.177
-447.177
-447.177
-447.177
-447.177
-447.177
-447.177
-447.177
-447.177
-447.177
-447.177
-447.177
-447.177
-447.177
-447.177
-450.219
-449.443
-458.778
-467.083
-447.177
-447.177
-447.177
-447.177
-447.177
-447.177
-447.177
-447.177
-447.177
-447.177
-447.177
-447.177
-447.177
-447.177
-447.177
-447.177
-467.093
-458.783
-505.453
-552.109
-447.177
-447.177
-447.177
-447.177
-447.177
-447.177
-447.177
-447.177
-447.177
-447.177
-447.177
-447.177
-447.177
-447.177
-447.177
-447.177
-552.163
-505.481
-613.72
-447.177
-447.177
-447.177
-447.177
-447.177
-447.177
-447.177
-447.177
-447.177
-447.177
-447.177
-447.177
-447.177
-447.177
-447.177
-447.177
-447.177
-447.177
-613.793
-447.177
-447.177
-447.177
-447.177
-447.177
-447.177
-447.177
-447.177
-447.177
-447.177
-447.177
-447.177
-447.177
-447.177
-447.177
-447.177
-447.177
-447.177
-447.177
-447.177
-447.177
-447.177
-447.177
-447.177
-447.177
-447.177
-447.177
-447.177
-447.177
-447.177
-447.177
-447.177
-447.177
-447.177
-447.177
-447.177
-447.177
-447.177
-447.177
-447.177
-447.177
-447.177
-447.177
-447.177
-447.177
-447.177
-447.177
-447.177
-447.177
-447.177
-447.177
-447.177
-447.177
-447.177
-447.177
-447.177
-447.177
-447.177
-447.177
-447.177
-447.177
-447.177
-447.177
-447.177
-447.177
-447.177
-447.177
-447.177
-447.177
-447.177
-447.177
-447.177
-447.177
-447.177
-447.177
-447.177
-447.177
-447.177
-447.177
-447.177
-2332.03
-447.177
-447.177
-447.177
-447.177
-447.177
-447.177
-447.177
-447.177
-447.177
-447.177
-447.177
-447.177
-447.177
-447.177
-447.177
-447.177
-447.177
-447.177
-2331.43
-447.177
-447.177
-447.177
-447.177
-447.177
-447.177
-447.177
-447.177
-447.177
-447.177
-447.177
-447.177
-447.177
-447.177
-447.177
-447.177
-447.177
-447.177
-447.177
-447.177
-3388.83
-6283.22
-6142.56
-447.177
-447.177
-447.177
-447.177
-447.177
-447.177
-447.177
-447.177
-447.177
-447.177
-447.177
-447.177
-447.177
-447.177
-6141.67
-6288.69
-3385.82
-3145.13
-5851.36
-447.177
-8464.36
-8780.66
-447.177
-447.177
-12487.1
-447.177
-447.177
-447.177
-447.177
-12478.1
-447.177
-447.177
-8775.63
-8463.86
-447.177
-5853.49
-3141.96
-2028.05
-3557.53
-3985.6
-6214.58
-7043.59
-447.177
-447.177
-13672.7
-13860
-16821.3
-16818.5
-13856.6
-13668.1
-447.177
-447.177
-7046.77
-6220.21
-3988.54
-3560.9
-2028.68
-911.522
-1247.5
-1362.25
-2118.29
-2523.38
-4041.38
-4790.82
-6576.27
-7305.71
-7954.21
-7955.64
-7306.99
-6578.18
-4794.31
-4045.46
-2526.96
-2121.16
-1364.31
-1249.31
-912.504
-520.19
-593.8
-622.469
-757.788
-842.679
-1097.41
-1261.67
-1614.18
-1807.82
-2003.59
-2003.92
-1808.23
-1614.74
-1262.48
-1098.3
-843.38
-758.436
-622.891
-594.201
-520.411
-453.339
-465.635
-472.527
-495.392
-513.308
-555.471
-587.062
-644.083
-677.424
-706.967
-707.024
-677.52
-644.214
-587.226
-555.643
-513.443
-495.512
-472.599
-465.696
-453.36
-447.897
-448.59
-449.285
-451.286
-453.297
-457.613
-461.366
-467.531
-471.433
-474.593
-474.6
-471.445
-467.548
-461.386
-457.632
-453.311
-451.296
-449.291
-448.594
-447.898
-447.177
-447.177
-478.074
-447.177
-447.177
-447.177
-447.177
-447.177
-447.177
-447.177
-447.177
-447.177
-2780.2
-447.177
-447.177
-3217.7
-3191.67
-2703.37
-2018.8
-779.22
-447.177
-447.177
-447.177
-447.177
-447.177
-447.177
-447.177
-447.177
-447.177
-447.177
-447.177
-447.177
-447.177
-447.177
-447.177
-447.177
-447.177
-447.177
-447.177
-2673.28
-447.177
-447.177
-447.177
-447.177
-447.177
-447.177
-447.177
-447.177
-447.177
-447.177
-447.177
-447.177
-447.177
-3911.33
-447.177
-8453.27
-447.177
-18468.2
-447.177
-3046.5
-447.177
-447.177
-447.177
-447.177
-447.177
-447.177
-447.177
-447.177
-447.177
-447.177
-447.177
-447.177
-447.177
-447.177
-4260.88
-447.177
-447.177
-447.177
-11828.4
-2527.56
-447.177
-447.177
-447.177
-447.177
-447.177
-447.177
-447.177
-447.177
-447.177
-447.177
-447.177
-447.177
-447.177
-447.177
-447.177
-447.177
-447.177
-14103.2
-11223.4
-2007.04
-447.177
-447.177
-447.177
-447.177
-447.177
-447.177
-447.177
-447.177
-447.177
-447.177
-447.177
-447.177
-447.177
-447.177
-11415.6
-7697.74
-447.177
-447.177
-447.177
-1330.12
-447.177
-447.177
-447.177
-447.177
-447.177
-447.177
-447.177
-447.177
-447.177
-447.177
-447.177
-447.177
-447.177
-447.177
-447.177
-447.177
-447.177
-447.177
-3588.47
-725.867
-447.177
-447.177
-447.177
-447.177
-447.177
-447.177
-447.177
-447.177
-447.177
-447.177
-447.177
-2894.64
-447.177
-447.177
-447.177
-447.177
-447.177
-4665.92
-1051.52
-497.864
-447.177
-447.177
-447.177
-447.177
-447.177
-447.177
-447.177
-447.177
-447.177
-447.177
-447.177
-447.177
-447.177
-447.177
-8163.7
-447.177
-5118.28
-1218.37
-537.932
-452.549
-447.177
-447.177
-447.177
-449.442
-458.778
-505.453
-447.177
-447.177
-447.177
-447.177
-447.177
-447.177
-2959.96
-447.177
-3145.13
-2028.05
-911.522
-520.19
-453.339
-447.897
-447.177
-447.177
-478.076
-447.177
-447.177
-447.177
-447.177
-447.177
-447.177
-447.177
-447.177
-447.177
-2779.6
-447.177
-447.177
-3217.25
-3190.76
-2702.58
-2019.01
-779.699
-447.177
-447.177
-447.177
-447.177
-447.177
-447.177
-447.177
-447.177
-447.177
-447.177
-447.177
-447.177
-447.177
-447.177
-447.177
-447.177
-447.177
-447.177
-447.177
-2674.23
-447.177
-447.177
-447.177
-447.177
-447.177
-447.177
-447.177
-447.177
-447.177
-447.177
-447.177
-447.177
-447.177
-3918.68
-447.177
-8449.18
-447.177
-18431.8
-447.177
-3047.49
-447.177
-447.177
-447.177
-447.177
-447.177
-447.177
-447.177
-447.177
-447.177
-447.177
-447.177
-447.177
-447.177
-447.177
-4258.59
-447.177
-447.177
-447.177
-11800.6
-2529.59
-447.177
-447.177
-447.177
-447.177
-447.177
-447.177
-447.177
-447.177
-447.177
-447.177
-447.177
-447.177
-447.177
-447.177
-447.177
-447.177
-447.177
-14064.5
-11183.9
-2010.59
-447.177
-447.177
-447.177
-447.177
-447.177
-447.177
-447.177
-447.177
-447.177
-447.177
-447.177
-447.177
-447.177
-447.177
-11384.3
-7693.42
-447.177
-447.177
-447.177
-1331.58
-447.177
-447.177
-447.177
-447.177
-447.177
-447.177
-447.177
-447.177
-447.177
-447.177
-447.177
-447.177
-447.177
-447.177
-447.177
-447.177
-447.177
-447.177
-3592.5
-726.489
-447.177
-447.177
-447.177
-447.177
-447.177
-447.177
-447.177
-447.177
-447.177
-447.177
-447.177
-2896.13
-447.177
-447.177
-447.177
-447.177
-447.177
-4670.36
-1053.04
-498.02
-447.177
-447.177
-447.177
-447.177
-447.177
-447.177
-447.177
-447.177
-447.177
-447.177
-447.177
-447.177
-447.177
-447.177
-8124.08
-447.177
-5123.97
-1220.37
-538.225
-452.569
-447.177
-447.177
-447.177
-449.443
-458.783
-505.481
-447.177
-447.177
-447.177
-447.177
-447.177
-447.177
-2958.78
-447.177
-3141.96
-2028.68
-912.504
-520.411
-453.36
-447.898
)
;
    }
    outlet
    {
        type            calculated;
        value           nonuniform List<scalar> 
200
(
-779.22
-791.18
-789.165
-849.758
-883.447
-960.261
-996.608
-1027.9
-1051.7
-1069.66
-1069.64
-1051.78
-1028.16
-997.013
-960.652
-883.868
-850.203
-789.612
-791.646
-779.699
-2673.28
-3802.52
-4284.02
-6415.73
-7586.08
-10719.8
-12127.6
-13576.6
-14074.4
-14416.2
-14416.6
-14076.1
-13583
-12137.4
-10729.2
-7593.95
-6423.02
-4289.11
-3806.99
-2674.23
-3046.5
-5600.26
-6525.12
-10287.9
-12367.2
-18136.4
-20694
-23645.4
-24276.4
-24548.5
-24551.4
-24280.3
-23652.8
-20705.9
-18149.5
-12379.7
-10299.3
-6531.85
-5606.35
-3047.49
-2527.56
-4663.1
-5504.11
-8610.85
-10327.7
-15407.3
-17779.9
-21727.2
-23093.4
-24626.4
-24628.3
-23103.1
-21739.8
-17786.9
-15416
-10337
-8620.25
-5510.6
-4668.59
-2529.59
-2007.04
-3572.91
-4077.34
-6466.64
-7741.16
-11862.2
-13948.8
-18242.7
-20092.4
-22008
-22009.8
-20102.7
-18273.4
-13966.7
-11874.8
-7750.78
-6475.76
-4083.45
-3578.13
-2010.59
-1330.12
-1987.99
-2198.68
-3385.86
-4033.28
-6418.74
-7750.17
-11176.8
-12883.7
-14800.5
-14802
-12900.3
-11196.6
-7757.82
-6426.33
-4039.82
-3391.71
-2202.39
-1991.65
-1331.58
-725.867
-932.014
-1003.42
-1396.93
-1620.73
-2412.15
-2896.49
-4083.83
-4752.48
-5469.16
-5470.11
-4756.72
-4087.57
-2899.39
-2415.14
-1623.04
-1399
-1004.79
-933.257
-726.489
-497.864
-551.929
-573.116
-663.944
-720.499
-883.077
-990.584
-1216.96
-1341.72
-1465.69
-1465.91
-1342.21
-1217.51
-991.208
-883.731
-721.024
-664.433
-573.437
-552.232
-498.02
-452.549
-463.599
-469.84
-490.246
-506.181
-543.506
-571.488
-622.114
-651.743
-678.21
-678.263
-651.84
-622.242
-571.642
-543.666
-506.305
-490.356
-469.906
-463.655
-452.569
-447.897
-448.59
-449.285
-451.286
-453.297
-457.613
-461.366
-467.531
-471.433
-474.593
-474.6
-471.445
-467.548
-461.386
-457.632
-453.311
-451.296
-449.291
-448.594
-447.898
)
;
    }
    ground
    {
        type            calculated;
        value           nonuniform List<scalar> 
160
(
-601.945
-1004.72
-1258.3
-1389.45
-1376.44
-1329.36
-1241.21
-1210.8
-1249.14
-1424.22
-1424.26
-1249.17
-1210.83
-1241.25
-1329.38
-1376.45
-1389.44
-1258.25
-1004.66
-601.909
-448.696
-450.556
-452.433
-457.27
-462.899
-483.74
-503.906
-559.976
-588.545
-586.662
-586.662
-588.545
-559.98
-503.909
-483.742
-462.899
-457.27
-452.433
-450.555
-448.696
-447.394
-447.696
-448.822
-452.936
-470.075
-485.808
-487.211
-484.041
-480.537
-478.689
-478.689
-480.536
-484.04
-487.211
-485.809
-470.077
-452.937
-448.822
-447.696
-447.394
-447.435
-448.16
-452.377
-456.846
-456.866
-455.877
-454.956
-454.657
-454.847
-455.128
-455.128
-454.847
-454.657
-454.956
-455.877
-456.867
-456.847
-452.378
-448.159
-447.435
-447.579
-448.419
-449.732
-450.136
-450.265
-450.337
-450.41
-450.497
-450.555
-450.565
-450.565
-450.555
-450.497
-450.41
-450.337
-450.265
-450.136
-449.732
-448.419
-447.579
-447.796
-448.408
-448.792
-448.917
-449.007
-449.087
-449.18
-449.253
-449.305
-449.342
-449.342
-449.305
-449.253
-449.18
-449.087
-449.007
-448.917
-448.792
-448.408
-447.796
-448.036
-448.432
-448.552
-448.588
-448.614
-448.631
-448.641
-448.647
-448.651
-448.652
-448.652
-448.651
-448.647
-448.641
-448.631
-448.614
-448.588
-448.552
-448.432
-448.036
-448.204
-448.286
-448.252
-448.205
-448.158
-448.115
-448.078
-448.049
-448.03
-448.02
-448.02
-448.03
-448.049
-448.078
-448.115
-448.158
-448.205
-448.252
-448.286
-448.204
)
;
    }
    inlet
    {
        type            calculated;
        value           nonuniform List<scalar> 
40
(
-447.177
-447.177
-447.177
-447.177
-447.177
-447.177
-447.177
-447.177
-447.177
-447.177
-447.177
-447.177
-447.177
-447.177
-447.177
-447.177
-447.177
-447.177
-447.177
-447.177
-447.177
-447.177
-447.177
-447.177
-447.177
-447.177
-447.177
-447.177
-447.177
-447.177
-447.177
-447.177
-447.177
-447.177
-447.177
-447.177
-447.177
-447.177
-447.177
-447.177
)
;
    }
    region0_to_pyrolysisRegion_coupledWall
    {
        type            calculated;
        value           nonuniform List<scalar> 
400
(
-1822.34
-2721.51
-3414.76
-3740.62
-3687.4
-3487.03
-3326.56
-3197.85
-3039.36
-2990.92
-2991.14
-3039.83
-3198
-3326.5
-3486.75
-3687.22
-3740.42
-3414.71
-2721.61
-1822.39
-1898.8
-2412.59
-3384.77
-4817.08
-5560.79
-5635.05
-5295.29
-4953.22
-4593.3
-4368.93
-4368.65
-4591.64
-4952.54
-5294.84
-5634.52
-5560.52
-4816.95
-3384.81
-2412.68
-1898.84
-2000.82
-2272.19
-2721.07
-3538.82
-5077.44
-6378.6
-6683.57
-6436.35
-5857.63
-5485.93
-5485.19
-5854.16
-6434.98
-6682.86
-6377.93
-5077.26
-3538.66
-2721.01
-2272.36
-2000.93
-2226.03
-2387.88
-2637.15
-3061.61
-3813.15
-5354.84
-6890.11
-7424.36
-7051.71
-6483.95
-6483.15
-7048.1
-7422.69
-6889.15
-5354.1
-3812.77
-3061.31
-2637.09
-2388.13
-2226.22
-2574.99
-2675.39
-2822.35
-3083.53
-3549
-4387.32
-6087.69
-7689.58
-8024.79
-7436.93
-7436.13
-8020.69
-7687.72
-6086.29
-4386.35
-3548.5
-3083.24
-2822.35
-2675.78
-2575.28
-3051.43
-3123.43
-3216.39
-3399.54
-3749.27
-4354.14
-5455.32
-7478.8
-8666.07
-8406.53
-8405.83
-8662.13
-7476.73
-5453.67
-4353.14
-3748.78
-3399.33
-3216.48
-3123.9
-3051.79
-3653.16
-3736.25
-3828.01
-3986.69
-4299.73
-4835.59
-5698.73
-7457.88
-9318.04
-9443.59
-9443.1
-9314.4
-7455.72
-5697.1
-4834.69
-4299.31
-3986.6
-3828.2
-3736.77
-3653.56
-4365.92
-4535.53
-4746.24
-4920.27
-5211.73
-5738.72
-6568
-8136.25
-10268.5
-10699.1
-10698.9
-10265.4
-8134.43
-6566.54
-5738.05
-5211.45
-4920.34
-4746.49
-4536.03
-4366.35
-5165.05
-5577.64
-6199.8
-6300.25
-6533.81
-7059.08
-7942.14
-9601.7
-11621.9
-12154.9
-12154.8
-11619.5
-9600.38
-7940.99
-7058.75
-6533.79
-6300.64
-6200.26
-5578.01
-5165.49
-5944.99
-6710.09
-7783.88
-8096.43
-8291.85
-8829.52
-9818.13
-11455
-13195.3
-13663.9
-13664
-13193.8
-11454.6
-9817.41
-8829.63
-8292.21
-8097.27
-7784.49
-6710.31
-5945.43
-6597.96
-7652.28
-9095.9
-10009.2
-10589.9
-11229.9
-12174.2
-13555
-14863.7
-15210.8
-15211.1
-14863
-13555.6
-12174.3
-11230.5
-10590.6
-10009.8
-9095.99
-7652.32
-6598.33
-7110.29
-8377.74
-9887.9
-10994
-11890.6
-12952.4
-14103
-15377.5
-16296.9
-16553.3
-16553.8
-16296.7
-15378.4
-14103.3
-12952.7
-11890.7
-10994.3
-9888.04
-8377.68
-7110.56
-7760.22
-9071.27
-10497.8
-11901.2
-13131.1
-14150.4
-15058.5
-15903
-16527.3
-16748.3
-16748.7
-16527.2
-15903.7
-15058.9
-14150.8
-13131.3
-11901.4
-10498
-9071.3
-7760.45
-7832.97
-9301.63
-10764.9
-12089.5
-13436.4
-14752.8
-15827.6
-16536.8
-16962
-17111.5
-17111.9
-16962.1
-16537.4
-15828.1
-14753.1
-13436.6
-12090
-10765.5
-9301.85
-7833.38
-7748.58
-9362.71
-10838.1
-12086.7
-13281.3
-14362
-15261.6
-15945.4
-16429.6
-16657.5
-16657.6
-16429.7
-15945.9
-15262.1
-14362.6
-13281.9
-12087.4
-10838.9
-9363.15
-7749.1
-8268.13
-9511.48
-10717.4
-11792
-12844.6
-13807.3
-14595.5
-15166.6
-15555.6
-15741.3
-15741.5
-15555.8
-15167.2
-14596.1
-13808.3
-12845.4
-11792.9
-10718.3
-9512.04
-8268.55
-7834.44
-9073.46
-10267.2
-11319
-12328.7
-13258.9
-14008.2
-14581.3
-14956.4
-15144.3
-15144.4
-14956.8
-14582.1
-14009.1
-13260
-12329.7
-11320
-10268.2
-9074.21
-7835.14
-7327.65
-8426.49
-9453.67
-10421.4
-11385.1
-12318.8
-13102.3
-13718.8
-14133
-14345.2
-14345.4
-14133.6
-13719.8
-13103.5
-12320
-11386.3
-10422.6
-9454.65
-8427.17
-7328.2
-6529.98
-7385.61
-8173.51
-9015.28
-9885.45
-10808.9
-11601.5
-12247.7
-12688.1
-12916.5
-12916.8
-12688.8
-12248.9
-11603
-10810.5
-9887.06
-9016.82
-8174.73
-7386.54
-6530.79
-5581.53
-6139.77
-6621.95
-7166.03
-7751.51
-8418.67
-9021.21
-9542.37
-9905.67
-10098.5
-10098.6
-9906.2
-9543.32
-9022.49
-8420.05
-7752.9
-7167.37
-6623.1
-6140.82
-5582.47
)
;
    }
}


// ************************************************************************* //
