/*--------------------------------*- C++ -*----------------------------------*\
  =========                 |
  \\      /  F ield         | OpenFOAM: The Open Source CFD Toolbox
   \\    /   O peration     | Website:  https://openfoam.org
    \\  /    A nd           | Version:  7
     \\/     M anipulation  |
\*---------------------------------------------------------------------------*/
FoamFile
{
    version     2.0;
    format      ascii;
    class       volScalarField;
    location    "1";
    object      qin;
}
// * * * * * * * * * * * * * * * * * * * * * * * * * * * * * * * * * * * * * //

dimensions      [1 0 -3 0 0 0 0];

internalField   uniform 0;

boundaryField
{
    side
    {
        type            calculated;
        value           nonuniform List<scalar> 
800
(
2646.38
2742.22
2783.19
2763.03
2689.24
2582.44
2470.08
2376.23
2313.75
2284.14
2284.29
2314.17
2376.82
2470.77
2583.07
2689.69
2763.3
2783.25
2742.26
2646.56
2821.62
2922.64
2978.54
2978.72
2922.48
2823.03
2705.66
2598.54
2522.35
2484.75
2484.9
2522.78
2599.16
2706.38
2823.7
2922.94
2979.04
2978.72
2922.81
2821.96
3100.66
3192.91
3249.82
3263.4
3229.92
3155.35
3057.32
2960.54
2887.97
2851.18
2851.3
2888.28
2960.95
3057.76
3155.75
3230.16
3263.53
3249.91
3193.01
3100.88
3515.45
3591.03
3636.91
3653.73
3641.97
3604.72
3550.45
3493.23
3449.23
3427.13
3427.21
3449.43
3493.44
3550.59
3604.8
3642.03
3653.76
3636.96
3591.1
3515.57
4076.02
4133.15
4161.8
4175.49
4183.99
4191.49
4198.15
4203.53
4209.67
4214.93
4214.93
4209.6
4203.34
4197.73
4191
4183.63
4175.26
4161.7
4133.08
4075.94
4785.86
4825.71
4836.09
4846.74
4879.37
4939.12
5016.21
5093.94
5158.48
5195.94
5195.83
5158.17
5093.37
5015.27
4938.14
4878.66
4846.32
4835.92
4825.53
4785.61
5618.9
5665.22
5668.42
5685.39
5754.09
5877.53
6031.03
6179.38
6296.06
6360.59
6360.34
6295.5
6178.5
6029.74
5876.37
5753.3
5685.08
5668.5
5665.24
5618.8
6600.42
6672.51
6684.66
6724.35
6846.65
7048
7281.75
7492.12
7644.01
7722.78
7722.36
7643.16
7490.88
7280.12
7046.71
6845.75
6724.08
6684.88
6672.57
6600.28
7705.35
7851.17
7912.35
8008.12
8209.51
8498.75
8811.03
9067.72
9231.4
9307.18
9306.71
9230.59
9066.56
8809.63
8497.91
8209.04
8008.38
7913.15
7851.77
7705.74
8885.21
9180.17
9365.76
9572.76
9881.56
10256.2
10617
10894.2
11072.7
11126.9
11126.5
11072
10893.2
10615.8
10255.6
9881.23
9573.18
9366.72
9180.95
8885.85
10056.4
10601.6
11010.3
11393.9
11805.9
12252.4
12678.9
12946.4
13040.8
13043.8
13043.5
13040.5
12945.9
12678.1
12252.3
11805.8
11394.5
11011.3
10602.6
10057.3
11129.7
12015
12734.7
13341.9
13910.4
14421.3
14768.9
14952.3
14979.6
14927.4
14927.4
14979.6
14952.2
14768.5
14421.5
13910.3
13342.3
12735.6
12015.8
11130.8
12248.2
13272.8
14296.3
15148.5
15854.1
16419.5
16748.3
16803.2
16748.4
16657.4
16657.6
16748.7
16803.7
16748.5
16419.9
15854.1
15148.5
14296.6
13273.1
12248.7
12078.8
13712.4
15128.1
16298.3
17243.1
17922.9
18238.8
18264.1
18147.1
18059.1
18059.4
18147.3
18264.9
18239.4
17923.6
17243.3
16298.2
15128.1
13712.5
12079.3
12549.9
13945
15299
16566.7
17637
18466.4
18889.3
19010.3
18923.3
18843.4
18843.8
18923.4
19011.2
18890.2
18467.2
17637.4
16566.3
15298.2
13943.7
12548.1
11368.5
12896.5
14289.3
15619.4
16803.5
17834.3
18482.3
18847.9
18932.3
18938.8
18939.3
18932.2
18848.7
18483.5
17835.3
16804.8
15620.1
14289.6
12897.3
11369.6
10513.8
11808
12931.2
14078.5
15207.4
16331.2
17175.2
17800.2
18120.7
18269.4
18269.9
18120.4
17800.9
17176.4
16332.3
15209.2
14079.8
12932.8
11810.3
10516.2
9716.85
10745.1
11584.3
12462.9
13422.2
14460
15384.3
16173.4
16692.3
16966.7
16967.3
16692.3
16174.2
15385.5
14460.7
13423.7
12464.1
11586.1
10747.8
9719.43
9235.6
9992.27
10590.2
11238.3
12015.4
12923.3
13825
14649.9
15253.9
15586.1
15586.8
15254.7
14650.9
13826.2
12923.4
12016.2
11238.8
10591.7
9994.68
9237.92
8821.31
9349.58
9754.81
10200
10770.4
11482.5
12247.1
12982.8
13554.1
13875.1
13875.6
13555.5
12983.8
12248.3
11482.1
10770.5
10199.7
9755.56
9351.27
8823.24
5027.91
5542.44
5556.83
5733.9
6153.26
6829.4
7775.08
8984.41
10440.1
12069.1
13728.3
15008.6
15751.8
15902.4
15832.7
15727.2
15287
14526.1
13344.7
11522.1
5091.05
5715.75
5761.49
5960.37
6381.35
7040.21
7947.95
9111.93
10542.7
12239.3
14161.8
16076.8
17749.6
19061.2
20190.8
21180.3
21447
20499.6
18324.3
15074.2
3693.83
4147.37
4517.49
5012.17
5666.76
6487.44
7479.78
8659.16
10062.6
11741.8
13772.9
16082.3
18520.3
20925.4
23181.7
25009.5
25607.6
24602.1
21763.1
17507.7
2939.63
3277.48
3677.86
4228.39
4936.32
5796.42
6808.85
7992.49
9399.69
11115.1
13234.4
15844.3
18758
21754.4
24520.8
26484.8
26814.3
25439.6
22269.2
17919.9
2324.41
2561.84
2916.48
3434.65
4114.46
4950.4
5947.59
7134.45
8575.59
10375.3
12673.3
15510.1
18698.3
21979.8
24635.6
26121.4
25922.5
24260.6
21016.5
17016.6
1885.68
2065.71
2373.46
2842.59
3473.71
4268.02
5239.6
6425.14
7892.18
9744.72
12120.2
15001.5
18165.7
21200.7
23621.4
24256.1
23342.1
21219.2
18196.5
14977.5
1627.62
1779.18
2051.26
2475.45
3060.07
3814.92
4761.72
5940.95
7417.17
9276.05
11610.4
14385
17208.3
19584.1
20864.2
20844.2
19398.2
17154.2
14763.2
12557.4
1508.38
1648.96
1897.57
2286.23
2830.61
3546.66
4457.85
5600.75
7028.93
8801.51
10945
13335
15500.1
17023.2
17290.1
16316.7
14638
12924.8
11547.5
10298.1
1478.59
1620.46
1858.53
2223.86
2735.6
3409.67
4258.23
5295.09
6543.5
7987.75
9589.89
11251.5
12611.1
13563.8
13415.7
12380.9
10994.1
9880.37
9160.82
8497.98
1492.73
1640.95
1874.58
2221.33
2699.07
3319.54
4072.58
4924.95
5883.1
6884.08
7865.02
8881.17
9355.26
10112.8
9786.2
8938.74
7970.77
7416.62
7163.17
6912.85
5027.59
5541.84
5556.15
5733.31
6152.95
6829.5
7775.55
8985.1
10440.9
12069.8
13728.8
15009
15752.3
15903.1
15833.6
15727.9
15287.3
14525.9
13344.5
11522.3
5090.71
5715.26
5761.05
5960.09
6381.35
7040.52
7948.51
9112.6
10543.3
12239.9
14162.3
16077.5
17750.6
19062.4
20192.5
21182.3
21448.6
20500.7
18325.8
15076.2
3693.36
4146.85
4517.05
5011.92
5666.79
6487.75
7480.3
8659.8
10063.3
11742.6
13773.9
16083.5
18522.2
20927.7
23184.3
25012.1
25609.2
24603.7
21765.4
17510.7
2939.12
3276.9
3677.35
4228.03
4936.2
5796.56
6809.21
7993.05
9400.39
11116.1
13235.7
15846.1
18760.6
21757.1
24524.1
26488.8
26817.6
25442.7
22272.8
17923.6
2323.9
2561.26
2915.94
3434.22
4114.21
4950.39
5947.78
7134.88
8576.21
10376.2
12674.7
15511.9
18700.7
21982.4
24638.1
26124.1
25924.9
24263.5
21020.4
17020.4
1885.22
2065.19
2372.96
2842.16
3473.43
4267.95
5239.72
6425.47
7892.61
9745.29
12120.6
15002.8
18167.4
21202.9
23623.1
24258.3
23344.6
21222.1
18200.3
14980.7
1627.26
1778.8
2050.9
2475.17
3059.89
3814.92
4761.86
5941.23
7417.52
9276.5
11610.8
14385.8
17209.6
19585.8
20865.9
20845.9
19399.9
17156.9
14766.2
12559.7
1508.15
1648.76
1897.4
2286.12
2830.55
3546.7
4457.96
5600.9
7029.1
8801.7
10945.1
13335.3
15500.7
17023.7
17290.9
16317.5
14639.1
12927.1
11549.6
10299.7
1478.5
1620.43
1858.51
2223.88
2735.61
3409.69
4258.27
5295.07
6543.49
7987.7
9589.75
11251.3
12611
13564
13415.9
12381.8
10995.8
9882.17
9162.43
8499.29
1492.77
1641.06
1874.67
2221.41
2699.08
3319.49
4072.58
4924.9
5883.18
6884.18
7865.13
8881.29
9355.48
10113.1
9786.56
8939.96
7972.34
7418.12
7164.56
6914.03
)
;
    }
    outlet
    {
        type            calculated;
        value           nonuniform List<scalar> 
200
(
10177.6
11003.1
11621.9
12224.3
12879.5
13597.1
14280.1
14874.9
15309.7
15541.8
15542.1
15310.6
14876.3
14281.8
13598.8
12881
12225.5
11622.5
11003.3
10177.7
12393.3
13480.9
14493.1
15568
16653.4
17797.6
18766.9
19561.2
20108
20394.6
20395
20109
19562.8
18769.1
17799.7
16655.3
15569.5
14494.1
13481.4
12393.6
13965.4
15362.9
16652.5
17999.1
19263.5
20527.2
21537.4
22351.1
22879.9
23153.2
23153.5
22880.7
22352.2
21538.7
20528.4
19264.6
17999.7
16652.5
15362.6
13965.3
14660.6
16039.8
17277.4
18607.7
19892.7
21207.8
22241.4
23096.6
23647.4
23946.1
23946.3
23648.5
23097.7
22242.3
21208.4
19893
18607.6
17276.7
16038.7
14659.8
14342.1
15718.3
16901.8
18168.5
19409.1
20718.5
21758.8
22628.7
23185.1
23487.4
23487.6
23186.2
22630
21759.6
20718.8
19408.9
18167.6
16900.3
15716.5
14341
12673.3
13875.4
14977.7
16165.1
17363.1
18638.6
19691
20609.2
21174.7
21481
21481.4
21176.6
20611.2
19692.6
18639.8
17364.2
16165.9
14978.4
13876.2
12674.2
11419.9
12379.5
13207.1
14087.7
15014.1
16015.9
16878.5
17641.8
18138.5
18415.8
18416
18139.7
17643
16879.9
16016.8
15015.1
14088.6
13208.1
12380.9
11421.3
10044.6
10776.1
11370.1
11975.7
12629.9
13338.2
13973.5
14526.6
14903.8
15113.9
15114.1
14904.8
14527.4
13974.5
13338.5
12630.5
11976.2
11371
10777.6
10046.1
8901.27
9413.79
9807.98
10209.2
10670.6
11197.6
11708.5
12172.5
12509.8
12699.3
12699.5
12510.7
12173.1
11709.4
11197.5
10670.7
10209.3
9808.65
9415.22
8902.72
7816.25
8117.94
8320.21
8538.67
8837.38
9230.6
9663.34
10088.1
10419.8
10608.8
10609.1
10420.7
10088.6
9663.93
9230.05
8837.14
8538.23
8320.61
8119.14
7817.7
)
;
    }
    ground
    {
        type            calculated;
        value           nonuniform List<scalar> 
160
(
2957.89
3325.05
3670.24
3937.98
4099.72
4168.38
4187.09
4169.86
4146.64
4149.48
4149.46
4146.75
4169.76
4187.05
4168.24
4099.62
3937.84
3670.06
3324.81
2957.6
2625.31
2834.02
3052.27
3238.04
3362.67
3425.84
3451.34
3462.11
3476.95
3498.67
3498.68
3477.07
3462.1
3451.34
3425.74
3362.54
3237.84
3051.99
2833.69
2624.94
2297.99
2451.62
2617.29
2761.52
2861
2914.3
2941.59
2969.52
3009.72
3046.16
3046.2
3009.89
2969.63
2941.69
2914.28
2860.88
2761.3
2616.95
2451.23
2297.59
2074.11
2210.46
2350.52
2467.12
2542.92
2579.87
2598.86
2626.19
2669.32
2706.39
2706.48
2669.57
2626.46
2599.1
2579.96
2542.84
2466.91
2350.16
2210.06
2073.73
1968.75
2095.1
2212.98
2301.04
2348.16
2360.18
2358.38
2366.8
2392.12
2416.58
2416.69
2392.44
2367.19
2358.75
2360.38
2348.15
2300.88
2212.64
2094.73
1968.44
1955.13
2065.35
2155.12
2208.84
2221.44
2202.28
2172.21
2152.61
2151.09
2157.58
2157.71
2151.44
2153.07
2172.67
2202.59
2221.53
2208.77
2154.86
2065.07
1954.94
1998
2082.64
2137.3
2151.95
2127.05
2074.88
2015.57
1968.03
1940.9
1930.87
1931
1941.25
1968.5
2016.06
2075.27
2127.26
2152
2137.17
2082.5
1997.96
2064.23
2116.28
2132.21
2107.11
2046.05
1963.49
1878.75
1808.67
1762.17
1740.12
1740.23
1762.46
1809.09
1879.24
1963.94
2046.36
2107.3
2132.24
2116.29
2064.34
)
;
    }
    inlet
    {
        type            calculated;
        value           nonuniform List<scalar> 
40
(
3664.25
4992.43
6073.04
6649.65
6726.68
6509.86
6383.43
6284.94
6132.18
6087.93
6088.11
6133.03
6285.18
6383.54
6509.69
6726.64
6649.62
6073.12
4992.5
3664.16
3730.79
4969.04
5853.85
6339.45
6559.08
6583.41
6544.46
6393.05
6239.81
6204.09
6204.07
6239.99
6392.95
6544.47
6583.27
6559.04
6339.4
5853.8
4969
3730.65
)
;
    }
    region0_to_pyrolysisRegion_coupledWall
    {
        type            calculated;
        value           nonuniform List<scalar> 
400
(
2087.13
3232.4
4054.49
4344.07
4245.9
3969.05
3833.15
3710.08
3546.38
3508.34
3508.44
3547.41
3710.25
3833.33
3968.93
4246
4344.23
4054.78
3232.76
2087.35
2150.82
2926.14
4470.61
6202.49
6909.76
6542.13
6013.26
5648.02
5279.91
5078.93
5078.79
5280.09
5647.72
6013.2
6541.79
6909.79
6202.74
4471.05
2926.33
2150.89
2147.24
2563.29
3276.65
4567.09
7124.73
7935.41
7699.76
7278.42
6648.49
6336.52
6335.84
6647.27
7277.48
7699.44
7934.99
7125.13
4567.38
3276.84
2563.46
2147.31
2268.75
2513.26
2905.48
3555.11
4721.11
7106.54
8304.47
8537.17
7868.96
7345.36
7344.41
7866.87
8535.62
8303.93
7106.18
4721.05
3554.96
2905.52
2513.48
2268.87
2536.02
2673.5
2898.16
3284.86
3959.81
5176.53
7657.81
8992.95
9044.8
8294.51
8293.17
9040.45
8990.63
7656.55
5175.37
3959.34
3284.52
2898.14
2673.88
2536.25
2963.35
3024.5
3140.13
3381.4
3838.68
4638.75
6168.43
8693.16
9673.7
9162.65
9161.1
9668.78
8690.37
6166.17
4637.21
3838.02
3381.02
3140.16
3025.08
2963.7
3571.23
3580.29
3618.89
3772.01
4127.18
4765.44
5835.73
8058.6
10042.2
10017
10015.4
10036.4
8055.01
5833.09
4763.81
4126.48
3771.74
3619.03
3581.03
3571.65
4369.32
4361.57
4362.1
4474.31
4793.26
5390.09
6339.85
8083.15
10653.7
11137.5
11136.1
10648
8079.87
6337.08
5388.67
4792.67
4474.24
4362.36
4362.35
4369.75
5349.73
5392.19
5443.73
5574.99
5891.78
6499.84
7471.17
9183.89
11848.5
12547.3
12546.2
11843.4
9181.36
7468.58
6498.83
5891.38
5575.15
5444.11
5392.86
5350.16
6478.8
6702.01
7044.71
7247.66
7511.99
8112.89
9147.99
11002.5
13635.9
14342.9
14342.1
13631.7
11001
9145.93
8112.43
7511.86
7248.09
7045.19
6702.52
6479.27
7687.94
8306.83
9344.27
9455.97
9657.6
10280.7
11437.6
13579.7
15916.4
16603.2
16602.9
15913.4
13579.9
11436.4
10280.8
9657.76
9456.72
9344.88
8307.18
7688.55
8805.47
9838.12
11393.3
12151.5
12417
13159
14519.6
16638
18374.8
18944.3
18944.6
18373.1
16638.9
14519.3
13159.5
12417.4
12152.4
11393.9
9838.51
8806.32
10039.7
11141.8
12712
14529
16069.2
17311.8
18562.2
19858.2
20876.9
21218.7
21219.2
20876.2
19859.2
18562.5
17312.4
16069.3
14529.2
12712.8
11142.5
10040.8
10162.2
11794.2
13518.7
15239.5
17164.7
19271.3
21106.3
22288.3
22997.7
23231.2
23231.7
22997.5
22289
21106.5
19271.3
17164.6
15240.2
13520.2
11795.5
10163.8
10467.7
12434.6
14435.1
16165.2
17842.6
19381.8
20741.6
21819.3
22647.9
23049.9
23050
22647.5
21819.6
20741.8
19382.4
17843.4
16166.6
14437.2
12436.4
10469.4
11291.4
13296.4
15495.5
17363.2
19093.5
20543.5
21690.5
22477.9
23045.8
23313.9
23314
23045.7
22478.3
21690.9
20544.9
19095.1
17365.3
15497.8
13298.3
11293
11350.7
13551.7
15909.7
17956.1
19845.7
21491.5
22740.5
23658
24245.7
24537.6
24537.9
24246.2
23659.2
22742
21493.5
19847.6
17958.3
15911.8
13553.2
11351.9
11330.9
13412.4
15492.3
17484.1
19455.5
21328
22850
24017.5
24787.8
25179.7
25180.1
24788.8
24019.5
22852.5
21330.6
19458
17486.5
15494
13413.2
11331.3
10572.9
12302.4
13951.3
15774.7
17677.7
19703.5
21417.5
22800.1
23731.8
24213.1
24213.6
23733.3
22802.8
21421.1
19707.2
17681.1
15777.7
13953.3
12303.5
10573.7
9364.71
10554.5
11591.9
12804.3
14131.7
15660.6
17036.6
18223.3
19046.1
19482
19482.4
19047.4
18225.7
17039.8
15663.9
14134.7
12806.9
11593.7
10555.9
9365.76
)
;
    }
}


// ************************************************************************* //
