/*--------------------------------*- C++ -*----------------------------------*\
  =========                 |
  \\      /  F ield         | OpenFOAM: The Open Source CFD Toolbox
   \\    /   O peration     | Website:  https://openfoam.org
    \\  /    A nd           | Version:  7
     \\/     M anipulation  |
\*---------------------------------------------------------------------------*/
FoamFile
{
    version     2.0;
    format      ascii;
    class       volScalarField;
    location    "1";
    object      qr;
}
// * * * * * * * * * * * * * * * * * * * * * * * * * * * * * * * * * * * * * //

dimensions      [1 0 -3 0 0 0 0];

internalField   uniform 0;

boundaryField
{
    side
    {
        type            calculated;
        value           nonuniform List<scalar> 
800
(
2199.2
2295.04
2336.01
2315.85
2242.07
2135.26
2022.9
1929.05
1866.57
1836.96
1837.11
1866.99
1929.64
2023.6
2135.9
2242.51
2316.13
2336.07
2295.08
2199.39
2374.45
2475.46
2531.37
2531.54
2475.3
2375.85
2258.48
2151.37
2075.17
2037.57
2037.73
2075.6
2151.98
2259.2
2376.52
2475.77
2531.86
2531.55
2475.63
2374.78
2653.49
2745.73
2802.65
2816.22
2782.74
2708.17
2610.14
2513.37
2440.8
2404.01
2404.12
2441.1
2513.77
2610.58
2708.57
2782.99
2816.35
2802.74
2745.84
2653.71
3066.01
3140.81
3189.73
3206.55
3194.79
3157.54
3103.27
3046.05
3002.06
2979.95
2980.03
3002.25
3046.26
3103.41
3157.62
3194.85
3206.58
3189.78
3140.88
3066.13
3617.24
3666.07
3714.62
3728.31
3736.81
3744.31
3750.98
3756.36
3762.49
3767.76
3767.75
3762.43
3756.17
3750.55
3743.82
3736.46
3728.09
3714.52
3665.99
3617.16
4280.41
4273.6
4388.92
4399.56
4432.19
4491.94
4569.03
4646.76
4711.31
4748.76
4748.65
4710.99
4646.19
4568.09
4490.97
4431.49
4399.14
4388.74
4273.37
4280.13
5005.18
5218.04
5221.24
5238.21
5306.92
5430.36
5583.86
5732.2
5848.88
5913.41
5913.16
5848.33
5731.32
5582.56
5429.19
5306.12
5237.9
5221.33
5218.07
5005.01
6153.24
6225.34
6237.49
6277.17
6399.47
6600.83
6834.57
7044.95
7196.83
7275.6
7275.18
7195.99
7043.7
6832.95
6599.53
6398.57
6276.9
6237.7
6225.39
6153.1
7258.17
7404
7465.17
7560.94
7762.34
8051.57
8363.85
8620.54
8784.22
8860
8859.54
8783.41
8619.39
8362.46
8050.73
7761.86
7561.2
7465.97
7404.59
7258.57
8438.03
8733
8918.58
9125.59
9434.39
9809.02
10169.8
10447
10625.5
10679.8
10679.3
10624.8
10446
10168.6
9808.45
9434.05
9126.01
8919.55
8733.78
8438.67
9609.2
10154.5
10563.1
10946.7
11358.7
11805.2
12231.7
12499.2
12593.7
12596.6
12596.4
12593.4
12498.7
12230.9
11805.1
11358.7
10947.3
10564.2
10155.4
9610.1
8797.71
11567.8
12287.6
12894.8
13463.2
13974.1
14321.7
14505.1
14532.4
14480.3
14480.2
14532.5
14505
14321.4
13974.3
13463.1
12895.2
12288.4
11568.6
8799.32
11801
12825.7
13849.2
14701.3
15407
15972.3
16301.1
16356
16301.2
16210.3
16210.4
16301.5
16356.5
16301.3
15972.7
15406.9
14701.3
13849.4
12825.9
11801.6
8690
7429.15
8985.51
15851.2
16795.9
17475.7
17791.7
17816.9
17699.9
17611.9
17612.2
17700.2
17817.8
17792.3
17476.4
16796.1
15851
8986.41
7423.77
8693.47
9404.75
8093.6
14851.8
8102.36
8856.31
18019.2
18442.1
6523.25
18476.1
18396.2
18396.6
18476.3
6533.09
18443
18020
8861.77
8102.48
14851
8090.21
9406.14
9340.46
9338.93
10303.7
9404.82
9759.96
17387.1
18035.1
5175.17
5072.35
2117.5
2120.72
5075.53
5180.58
18036.3
17388.2
9758.07
9399.9
10301.1
9336.42
9340.97
9602.25
10560.5
11568.9
11960.2
12684.1
12289.8
12384.4
11223.9
10815
10315.2
10314.3
10813.4
11222.7
12382.1
12286.9
12682.3
11958.7
11568.5
10561
9603.7
9196.66
10151.3
10961.8
11705.1
12579.6
13362.6
14122.7
14559.3
14884.4
14963.1
14963.4
14884
14559.5
14123.1
13362.4
12580.3
11705.6
10963.2
10153.6
9199.02
8782.26
9526.64
10117.7
10742.9
11502.1
12367.8
13237.9
14005.8
14576.5
14879.1
14879.7
14577.2
14006.7
13239
12367.8
11502.8
10743.3
10119.1
9528.98
8784.56
8373.41
8900.99
9305.52
9748.69
10317.1
11024.9
11785.7
12515.2
13082.7
13400.5
13401
13084.1
12516.3
11786.9
11024.5
10317.1
9748.37
9306.26
8902.68
8375.34
4580.73
5095.27
5078.76
5286.73
5706.08
6382.23
7327.9
8537.23
9992.94
11621.9
13281.1
14561.4
12971.6
15455.3
15385.6
12509.5
12095.3
11822.8
11325.9
10742.9
4643.88
5268.57
5314.31
5513.19
5934.18
6593.03
7500.77
8664.76
10095.5
11792.1
13714.6
15629.6
17302.4
18614
19743.6
20733.1
20999.8
20052.4
17877.1
12401
3246.66
3700.19
4070.32
4565
5219.59
6040.26
7032.6
8211.98
9615.41
11294.7
13325.8
15635.1
18073.2
17014.1
22734.5
16556.2
25160.5
6133.87
21316
14461.2
2492.46
2830.3
3230.69
3781.21
4489.14
5349.24
6361.67
7545.32
8952.51
10668
12787.2
15397.1
18310.9
21307.2
20259.9
26037.6
26367.1
24992.4
10440.8
15392.3
1877.23
2114.66
2469.31
2987.48
3667.29
4503.23
5500.41
6687.27
8128.41
9928.08
12226.1
15062.9
18251.1
21532.7
24188.4
25674.3
25475.3
10157.4
9793.07
15009.5
1438.51
1618.53
1926.29
2395.41
3026.54
3820.84
4792.42
5977.97
7445
9297.54
11673
14554.3
17718.5
20753.5
12205.8
16558.4
22894.9
20772.1
17749.3
13647.4
1180.44
1332
1604.08
2028.28
2612.89
3367.75
4314.55
5493.77
6970
8828.87
11163.2
13937.8
16761.1
19136.9
20417
20397
18951
16707
11174.7
11831.5
1061.2
1201.79
1450.4
1839.05
2383.43
3099.48
4010.67
5153.57
6581.76
8354.33
10497.8
10440.3
15053
16576
16842.9
15869.5
14190.9
8258.88
10496
9800.21
1031.41
1173.28
1411.35
1776.68
2288.43
2962.49
3811.05
4847.91
6096.32
7540.57
9142.72
10804.3
12164
13116.6
5252
11933.8
5875.82
8662
8622.89
8045.43
1045.55
1193.77
1427.41
1771.89
2240.3
2814.09
3625.4
4477.77
5435.92
6436.9
7417.84
8434
6395.3
9665.61
6641.06
6910.69
7059.25
6896.43
6709.83
6464.95
4580.42
5094.67
5078.08
5286.14
5705.78
6382.33
7328.37
8537.92
9993.68
11622.6
13281.6
14561.8
12972.7
15456
15386.4
12510.6
12096.5
11823.3
11325.5
10742.6
4643.53
5268.08
5313.87
5512.91
5934.17
6593.35
7501.33
8665.43
10096.2
11792.7
13715.1
15630.3
17303.4
18615.3
19745.3
20735.1
21001.4
20053.5
17878.6
12401.9
3246.19
3699.67
4069.87
4564.74
5219.61
6040.58
7033.12
8212.62
9616.08
11295.4
13326.7
15636.4
18075
17009
22737.1
16562.9
25162
6171.87
21318.2
14463.2
2491.95
2829.73
3230.17
3780.85
4489.02
5349.39
6362.03
7545.88
8953.21
10668.9
12788.5
15399
18313.4
21309.9
20265.5
26041.6
26370.4
24995.5
10472.2
15394
1876.73
2114.08
2468.76
2987.04
3667.03
4503.21
5500.6
6687.7
8129.03
9929.02
12227.5
15064.7
18253.5
21535.2
24191
25676.9
25477.7
10199
9836.43
15009.8
1438.05
1618.01
1925.79
2394.99
3026.25
3820.77
4792.54
5978.29
7445.43
9298.12
11673.5
14555.6
17720.3
20755.7
12238.8
16564.9
22897.4
20774.9
17753.1
13649.1
1180.09
1331.62
1603.72
2027.99
2612.71
3367.74
4314.69
5494.05
6970.34
8829.32
11163.6
13938.7
16762.4
19138.6
20418.7
20398.8
18952.7
16709.7
11173.7
11833.2
1060.97
1201.59
1450.22
1838.94
2383.37
3099.53
4010.79
5153.73
6581.93
8354.53
10498
10439.2
15053.5
16576.5
16843.7
15870.3
14191.9
8256.76
10496.6
9801.68
1031.33
1173.25
1411.34
1776.7
2288.44
2962.51
3811.09
4847.9
6096.32
7540.53
9142.57
10804.1
12163.8
13116.8
5291.84
11934.6
5871.82
8661.8
8624.21
8046.73
1045.6
1193.89
1427.49
1771.96
2240.3
2814.01
3625.4
4477.72
5436
6437
7417.95
8434.12
6396.7
9665.93
6644.6
6911.28
7059.84
6897.71
6711.2
6466.13
)
;
    }
    outlet
    {
        type            calculated;
        value           nonuniform List<scalar> 
200
(
9398.42
10211.9
10832.8
11374.6
11996.1
12636.8
13283.4
13847
14258
14472.2
14472.5
14258.8
13848.1
13284.8
12638.1
11997.2
11375.3
10832.9
10211.7
9397.97
9720.06
9678.36
10209.1
9152.24
9067.29
7077.75
6639.34
5984.59
6033.53
5978.39
5978.41
6032.88
5979.88
6631.69
7070.55
9061.31
9146.51
10205
9674.36
9719.41
10918.9
9762.68
10127.3
7711.14
6896.33
2390.8
843.356
-1294.3
-1396.52
-1395.33
-1397.87
-1399.53
-1300.51
832.845
2378.91
6884.84
7700.48
10120.7
9756.27
10917.8
12133
11376.7
11773.2
9996.82
9564.95
5800.51
4461.57
1369.32
554.051
-680.346
-681.909
545.358
1357.93
4455.4
5792.47
9556.02
9987.31
11766.1
11370.2
12130.2
12335.1
12145.4
12824.4
11701.8
11668
8856.33
7810.03
4385.97
3092.7
1479.39
1477.82
3083.56
4356.64
7792.9
8844.04
11658.1
11691.9
12816.8
12138.4
12330.4
11343.2
11887.4
12779.1
12779.2
13329.8
12219.8
11940.8
9432.36
8291.02
6680.51
6679.47
8276.31
9414.63
11934.8
12213.5
13324.4
12774.2
12776
11884.5
11342.7
10694
11447.5
12203.7
12690.8
13393.4
13603.8
13982
13557.9
13386
12946.6
12945.9
13383
13555.4
13980.5
13601.7
13392.1
12689.6
12203.3
11447.6
10694.8
9546.79
10224.1
10797
11311.8
11909.4
12455.1
12982.9
13309.7
13562.1
13648.2
13648.2
13562.6
13309.9
12983.3
12454.8
11909.5
11311.8
10797.6
10225.3
9548.07
8448.72
8950.19
9338.14
9718.96
10164.4
10654.1
11137.1
11550.4
11858
12021.1
12021.3
11858.8
11550.9
11137.7
10653.8
10164.4
9718.93
9338.75
8951.57
8450.15
7368.35
7669.35
7870.92
8087.38
8384.09
8772.98
9201.97
9620.52
9948.36
10134.2
10134.5
9949.21
9621.06
9202.55
8772.42
8383.83
8086.93
7871.31
7670.54
7369.8
)
;
    }
    ground
    {
        type            calculated;
        value           nonuniform List<scalar> 
160
(
2355.94
2320.32
2411.93
2548.53
2723.29
2839.02
2945.88
2959.05
2897.51
2725.26
2725.2
2897.58
2958.92
2945.8
2838.85
2723.17
2548.41
2411.8
2320.15
2355.7
2176.61
2383.46
2599.83
2780.77
2899.77
2942.1
2947.44
2902.14
2888.4
2912.01
2912.02
2888.52
2902.12
2947.43
2942
2899.64
2780.57
2599.56
2383.14
2176.25
1850.6
2003.92
2168.47
2308.59
2390.92
2428.49
2454.38
2485.48
2529.18
2567.47
2567.51
2529.36
2485.59
2454.48
2428.47
2390.8
2308.36
2168.13
2003.54
1850.2
1626.67
1762.3
1898.15
2010.27
2086.05
2123.99
2143.9
2171.53
2214.47
2251.26
2251.35
2214.72
2171.8
2144.15
2124.08
2085.97
2010.06
1897.78
1761.9
1626.29
1521.17
1646.68
1763.25
1850.91
1897.89
1909.84
1907.97
1916.3
1941.56
1966.01
1966.13
1941.88
1916.69
1908.34
1910.05
1897.88
1850.74
1762.91
1646.31
1520.86
1507.33
1616.94
1706.32
1759.92
1772.44
1753.19
1723.03
1703.35
1701.78
1708.24
1708.37
1702.14
1703.81
1723.49
1753.5
1772.53
1759.85
1706.06
1616.66
1507.14
1549.97
1634.21
1688.75
1703.36
1678.44
1626.25
1566.92
1519.39
1492.25
1482.22
1482.35
1492.6
1519.85
1567.42
1626.64
1678.64
1703.41
1688.62
1634.06
1549.93
1616.02
1667.99
1683.96
1658.9
1597.89
1515.38
1430.67
1360.62
1314.14
1292.1
1292.21
1314.43
1361.04
1431.17
1515.83
1598.21
1659.09
1683.99
1668
1616.14
)
;
    }
    inlet
    {
        type            calculated;
        value           nonuniform List<scalar> 
40
(
3217.07
4545.25
5625.86
6202.47
6279.5
6062.68
5936.25
5837.76
5685.01
5640.75
5640.93
5685.85
5838.01
5936.36
6062.51
6279.46
6202.44
5625.94
4545.32
3216.99
3283.61
4521.87
5406.68
5892.28
6111.9
6136.23
6097.28
5945.87
5792.64
5756.92
5756.89
5792.81
5945.77
6097.29
6136.1
6111.86
5892.22
5406.62
4521.82
3283.47
)
;
    }
    region0_to_pyrolysisRegion_coupledWall
    {
        type            calculated;
        value           nonuniform List<scalar> 
400
(
239.547
552.632
720.791
653.37
583.984
459.085
489.545
500.199
502.396
521.381
521.127
503.377
500.223
489.996
459.438
584.522
654.061
721.416
553.04
239.825
165.298
508.927
1270.33
1626.06
1578.03
931.463
652.254
621.781
625.763
673.284
673.432
628.78
622.357
652.977
931.88
1578.63
1626.77
1271.01
509.059
165.323
-60.7037
123.049
458.007
1084.92
2452.8
1739.75
956.448
707.184
648.73
753.577
753.614
652.364
707.828
957.17
1740.23
2453.74
1085.68
458.413
123.005
-60.8298
-287.221
-185.207
-5.60446
275.133
785.27
1925.81
1423.06
965.979
551.82
633.978
633.676
554.297
966.081
1423.76
1926.38
785.78
275.384
-5.46989
-185.345
-287.416
-488.902
-450.655
-355.419
-203.453
40.9138
490.127
1528.72
1099.89
676.371
457.722
456.865
676.296
1099.1
1528.94
489.786
40.9472
-203.576
-355.497
-450.75
-489.081
-650.751
-689.084
-676.507
-620.432
-515.827
-314.366
184.877
809.489
462.099
107.654
106.326
460.85
808.252
183.959
-315.263
-516.107
-620.752
-676.667
-688.986
-650.852
-730.904
-882.094
-999.521
-1043.86
-1036.01
-961.696
-762.02
-229.658
-133.649
-351.246
-352.962
-136.735
-231.984
-763.632
-962.91
-1036.46
-1044.2
-999.665
-881.793
-730.954
-673.674
-1016
-1410.5
-1547.68
-1563.29
-1531.18
-1438.23
-1304.15
-778.615
-717.521
-719.273
-782.613
-1306.57
-1440.37
-1532.44
-1563.82
-1547.96
-1410.55
-1015.59
-673.75
-404.431
-1079.77
-2056.8
-2091.73
-2039.25
-1988.93
-1931.6
-1942.13
-1105.39
-884.233
-885.886
-1109.81
-1944.18
-1934.02
-1990.09
-2039.89
-2092.13
-2056.99
-1079.33
-404.545
238.497
-721.47
-1960.99
-2281.45
-2295.69
-2283.16
-2272.28
-1999.38
-777.609
-435.643
-437.066
-781.939
-2001.19
-2274.6
-2284.13
-2296.49
-2282.04
-1961.16
-721.016
238.483
1314.76
498.67
-281.537
-1605.58
-2294.45
-2407.71
-2144.56
-1077.5
342.132
830.404
829.507
338.497
-1078.33
-2146.58
-2408.38
-2295.21
-1605.18
-280.616
499.238
1315.15
2553.17
2038.93
1924.29
1338.71
388.66
-108.704
163.583
1314.67
2419.96
2852.53
2852.35
2417.54
1314.62
162.656
-108.269
389.097
1339.71
1925.15
2039.75
2554.15
3802.4
3403.56
3477.51
3986.56
4437.41
4810.59
5338.98
5969.37
6493.73
6652.95
6653.35
6492.78
5969.88
5338.74
4810.85
4437.31
3986.75
3478.45
3404.73
3803.81
4319.56
4567.02
4918.29
5462.45
6296.63
7437.34
8533.86
9216.06
9622.84
9751.19
9751.49
9622.21
9216.28
8533.43
7436.99
6296.25
5462.84
4919.63
4568.7
4321.38
5125.45
5781.38
6671.99
7477.87
8262.14
8967.19
9646.29
10218.6
10713
10966.2
10966.2
10712.3
10218.5
9645.97
8967.34
8262.54
7478.92
6673.76
5783.19
5127.25
5386.71
6712.13
8340.63
9658.11
10769.6
11568
12146.2
12503.4
12785.2
12918.3
12918.3
12784.9
12503.4
12146.2
11568.9
10770.6
9659.66
8342.57
6713.85
5388.38
5586.44
7108.06
8875.18
10395.9
11724.2
12805.9
13566.6
14101.6
14433.9
14599.6
14599.8
14434.2
14102.4
13567.6
12807.3
11725.7
10397.5
8876.64
7108.93
5587.13
5511.83
6916.99
8408.35
9865.33
11272.9
12581.2
13606.3
14375.2
14872
15123.9
15124.2
14872.8
14376.7
13608.3
12583.4
11274.9
9867.2
8409.61
6917.43
5511.97
4901.98
6033.6
7170.96
8481.8
9836.93
11283.4
12478.9
13433.7
14065.2
14390
14390.4
14066.5
13436
12481.9
11286.6
9839.82
8484.26
7172.51
6034.36
4902.39
4192.28
4954.61
5641.14
6492.29
7417.29
8502.52
9453.56
10269.7
10821.5
11112.8
11113.2
10822.7
10271.8
9456.21
8505.24
7419.71
6494.31
5642.43
4955.43
4192.74
)
;
    }
}


// ************************************************************************* //
