/*--------------------------------*- C++ -*----------------------------------*\
  =========                 |
  \\      /  F ield         | OpenFOAM: The Open Source CFD Toolbox
   \\    /   O peration     | Website:  https://openfoam.org
    \\  /    A nd           | Version:  7
     \\/     M anipulation  |
\*---------------------------------------------------------------------------*/
FoamFile
{
    version     2.0;
    format      ascii;
    class       volScalarField;
    location    "1";
    object      T;
}
// * * * * * * * * * * * * * * * * * * * * * * * * * * * * * * * * * * * * * //

dimensions      [0 0 0 1 0 0 0];

internalField   nonuniform List<scalar> 
4000
(
648.115
645.835
326.449
298.335
298.037
298.042
298.064
298.1
298.143
298.176
1227.4
1239.82
353.636
298.512
298.083
298.138
298.181
298.201
298.214
298.191
1383.27
1291.16
382.222
298.86
298.232
298.673
298.404
298.272
298.236
298.184
1299.91
1244.18
392.076
299.619
298.756
299.483
298.482
298.295
298.242
298.174
1200.34
1210
392.003
300.412
300.901
299.545
298.503
298.309
298.245
298.165
1066.94
1206.26
388.537
303.529
303.604
299.409
298.513
298.321
298.246
298.156
1103.29
1191.04
380.153
305.958
303.984
299.25
298.523
298.334
298.246
298.149
1086.78
1159.59
377.169
313.158
303.649
299.164
298.535
298.345
298.246
298.143
1051.36
1158.73
379.438
317.31
303.115
299.18
298.543
298.353
298.245
298.139
1059.68
1161.89
389.337
317.143
302.826
299.221
298.543
298.359
298.245
298.137
1059.82
1161.88
389.339
317.143
302.826
299.221
298.543
298.359
298.245
298.137
1051.82
1158.73
379.44
317.31
303.115
299.18
298.543
298.353
298.245
298.139
1086.94
1159.58
377.171
313.158
303.649
299.164
298.535
298.345
298.246
298.143
1103.3
1191.04
380.155
305.959
303.984
299.25
298.523
298.334
298.246
298.149
1066.93
1206.26
388.538
303.53
303.604
299.409
298.513
298.321
298.246
298.156
1200.33
1210
392.002
300.412
300.901
299.545
298.503
298.309
298.245
298.165
1299.9
1244.16
392.073
299.619
298.756
299.483
298.482
298.295
298.242
298.174
1383.28
1291.15
382.216
298.86
298.232
298.673
298.404
298.272
298.236
298.184
1227.48
1239.86
353.63
298.512
298.083
298.138
298.181
298.201
298.214
298.191
648.294
645.994
326.447
298.334
298.037
298.042
298.064
298.1
298.143
298.176
468.531
425.411
301.282
298.06
298.04
298.056
298.107
298.137
298.177
298.204
897.388
906.556
334.588
298.684
298.103
298.225
298.583
298.355
298.266
298.218
1468.05
1439.11
413.639
300.728
298.279
299.138
299.308
298.458
298.291
298.213
1609.81
1577.3
511.404
304.62
298.816
301.325
299.355
298.472
298.299
298.205
1551.42
1525.6
518.666
304.262
300.289
302.292
299.291
298.488
298.309
298.197
1414.22
1443.88
505.841
304.675
304.186
302.096
299.245
298.518
298.316
298.19
1278.53
1438.02
468.261
306.269
308.312
301.447
299.242
298.545
298.322
298.184
1342.46
1220.87
417.075
310.435
308.939
301.319
299.277
298.568
298.326
298.179
1324.93
1054.2
395.931
321.762
307.641
301.407
299.333
298.587
298.329
298.176
1290.98
1065.99
404.489
334.977
307.924
302.263
299.358
298.608
298.33
298.174
1291.05
1065.99
404.494
334.978
307.924
302.263
299.358
298.608
298.33
298.174
1325.04
1054.22
395.934
321.763
307.638
301.407
299.333
298.587
298.329
298.176
1342.52
1220.87
417.075
310.436
308.927
301.32
299.277
298.568
298.326
298.179
1278.53
1438.02
468.272
306.268
308.225
301.448
299.242
298.545
298.322
298.184
1414.2
1443.85
505.85
304.684
304.361
302.095
299.245
298.518
298.316
298.19
1551.4
1525.59
518.676
304.262
300.205
302.292
299.291
298.488
298.309
298.197
1609.83
1577.31
511.396
304.62
298.818
301.326
299.355
298.472
298.299
298.205
1468.12
1439.11
413.639
300.728
298.279
299.139
299.308
298.458
298.291
298.213
897.378
906.511
334.587
298.684
298.103
298.225
298.584
298.355
298.266
298.218
468.538
425.402
301.282
298.06
298.04
298.056
298.107
298.137
298.177
298.204
311.799
305.735
298.155
298.05
298.043
298.047
298.174
298.332
298.28
298.26
379.209
375.644
303.438
298.189
298.122
298.338
299.279
299.284
298.511
298.276
606.694
690.275
341.189
299.609
298.354
299.156
301.781
299.528
298.511
298.269
1255.86
1329.86
458.339
305.226
298.744
301.831
302.895
299.456
298.519
298.263
1652.66
1622.64
609.306
316.213
300.664
307.401
302.853
299.429
298.546
298.256
1572.08
1679.04
786.439
329.468
303.741
308.98
302.578
299.478
298.568
298.25
1464.75
1667.05
724.362
327.31
311.144
309.697
302.829
299.574
298.591
298.244
1405
1473.83
570.345
323.214
315.453
311.07
303.021
299.675
298.612
298.24
1401.14
1079.21
450.022
326.924
325.908
311.443
303.285
299.777
298.633
298.238
1399.38
910.303
435.281
349.265
331.388
309.444
303.489
299.829
298.645
298.237
1399.32
910.334
435.289
349.276
331.388
309.447
303.489
299.829
298.645
298.237
1401.05
1079.23
450.009
326.93
325.914
311.444
303.285
299.777
298.633
298.238
1405.02
1473.8
570.308
323.22
315.471
311.069
303.021
299.675
298.612
298.24
1464.73
1667.04
724.404
327.318
311.148
309.697
302.829
299.574
298.591
298.244
1572.04
1679.05
786.513
329.479
303.733
308.98
302.578
299.478
298.568
298.25
1652.69
1622.66
609.365
316.219
300.665
307.402
302.853
299.429
298.546
298.256
1256.17
1330.08
458.381
305.228
298.744
301.832
302.895
299.456
298.519
298.263
606.8
690.375
341.203
299.609
298.354
299.156
301.781
299.528
298.511
298.269
379.228
375.652
303.44
298.189
298.122
298.338
299.279
299.284
298.511
298.276
311.8
305.734
298.155
298.05
298.043
298.047
298.174
298.332
298.28
298.26
298.351
298.193
298.067
298.05
298.043
298.044
298.075
298.642
298.998
298.436
302.126
301.592
298.319
298.103
298.126
298.348
299.569
302.315
300.688
298.613
327.834
334.896
302.058
298.298
298.303
298.903
302.788
305.363
300.365
298.518
483.506
510.655
329.057
299.591
298.558
301.48
310.029
305.337
300.22
298.523
1069.15
1100.95
455.059
307.607
299.779
307.033
313.378
304.878
300.233
298.497
1598.1
1649.32
684.764
322.475
304.616
317.401
314.439
304.602
300.276
298.479
1540.44
1722.22
900.7
355.619
311.929
320.153
314.545
304.617
300.344
298.47
1496.99
1712.75
827.919
354.17
320.837
323.027
316.519
304.825
300.418
298.464
1451.13
1259.55
612.545
341.927
328.772
323.776
317.943
305.054
300.522
298.461
1431.02
925.029
478.305
354.545
348.005
323.285
318.02
305.17
300.604
298.46
1430.9
925.021
478.237
354.556
348.002
323.281
318.02
305.17
300.604
298.46
1450.98
1259.51
612.468
341.932
328.781
323.775
317.944
305.055
300.522
298.461
1496.94
1712.73
827.999
354.185
320.852
323.031
316.519
304.825
300.418
298.464
1540.42
1722.24
900.874
355.649
311.93
320.154
314.546
304.617
300.344
298.47
1598.12
1649.4
684.962
322.491
304.613
317.403
314.439
304.602
300.276
298.479
1069.36
1101.26
455.141
307.613
299.78
307.033
313.377
304.878
300.233
298.497
483.582
510.756
329.072
299.592
298.558
301.48
310.029
305.338
300.221
298.523
327.846
334.913
302.061
298.298
298.303
298.903
302.788
305.364
300.366
298.518
302.127
301.592
298.319
298.103
298.126
298.348
299.569
302.315
300.689
298.614
298.351
298.193
298.067
298.05
298.043
298.044
298.075
298.642
298.998
298.436
298.094
298.097
298.066
298.05
298.044
298.043
298.054
298.217
300.471
300.441
298.349
298.417
298.178
298.104
298.117
298.334
299.152
303.486
310.254
302.13
301.031
301.346
298.668
298.229
298.236
298.758
301.195
313.424
310.845
300.811
322.372
322.246
302.117
298.508
298.891
300.612
310.655
322.141
310.314
300.688
453.132
454.259
327.843
300.961
300.083
306.477
323.425
325.045
309.815
300.294
1088.25
1002.55
426.364
310.543
305.36
319.389
331.914
326.233
309.59
299.976
1540.01
1630.32
717.138
331.62
311.362
331.394
338.506
327.78
309.626
299.793
1539.84
1747.26
905.076
377.146
330.189
336.03
340.088
329.204
309.581
299.701
1520.47
1539.7
813.153
371.144
336.786
340.705
339.959
331.223
309.713
299.683
1470.32
1003.03
568.896
367.231
358.303
354.912
339.191
332.271
309.809
299.702
1470.16
1002.98
568.89
367.242
358.33
354.926
339.192
332.272
309.809
299.702
1520.14
1539.52
813.17
371.151
336.783
340.707
339.962
331.225
309.714
299.683
1539.78
1747.3
905.186
377.167
330.166
336.023
340.091
329.206
309.582
299.701
1540.03
1630.42
717.427
331.641
311.307
331.385
338.507
327.781
309.627
299.793
1088.29
1002.79
426.476
310.549
305.315
319.382
331.914
326.234
309.591
299.977
453.16
454.359
327.863
300.964
300.063
306.478
323.426
325.045
309.817
300.295
322.379
322.259
302.118
298.508
298.896
300.614
310.656
322.141
310.316
300.688
301.032
301.347
298.668
298.229
298.236
298.758
301.195
313.425
310.848
300.812
298.349
298.417
298.178
298.104
298.117
298.334
299.152
303.486
310.257
302.133
298.094
298.097
298.066
298.051
298.044
298.043
298.054
298.217
300.471
300.442
298.114
298.096
298.079
298.056
298.049
298.047
298.056
298.124
300.247
308.758
298.396
298.456
298.295
298.179
298.14
298.278
299.163
302.715
321.69
316.246
299.522
299.584
298.93
298.432
298.346
298.779
301.154
312.834
337.379
311.762
305.66
304.827
302.059
298.997
299.781
300.698
311.187
339.356
344.744
310.87
334.165
330.218
311.854
304.216
302.706
307.678
332.037
358.859
347.356
308.318
527.212
476.985
343.701
313.357
313.128
322.746
355.66
367.769
348.064
305.883
1301.58
1084.15
453.382
326.934
319.048
348.711
368.379
371.966
349.329
304.735
1544.13
1690.95
843.495
375.801
330.968
351.532
369.123
375.193
349.586
303.656
1554.52
1717.28
847.263
390.794
350.84
357.577
371.675
375.07
349.573
302.929
1495.91
1139.46
651.694
389.222
367.821
371.243
375.842
373.662
350.973
302.858
1495.7
1139.27
651.706
389.219
367.817
371.24
375.841
373.662
350.974
302.858
1554.05
1717.22
847.273
390.795
350.823
357.574
371.676
375.07
349.576
302.929
1544.09
1691.01
843.593
375.813
330.965
351.536
369.126
375.196
349.592
303.657
1301.47
1084.33
453.48
326.941
319.037
348.722
368.379
371.969
349.336
304.736
527.182
477.045
343.73
313.36
313.157
322.755
355.666
367.773
348.072
305.885
334.163
330.233
311.86
304.218
302.687
307.681
332.042
358.861
347.364
308.321
305.659
304.829
302.06
298.998
299.796
300.699
311.191
339.36
344.754
310.875
299.521
299.585
298.931
298.432
298.346
298.779
301.155
312.837
337.388
311.768
298.396
298.456
298.295
298.179
298.14
298.278
299.163
302.715
321.694
316.255
298.113
298.096
298.079
298.056
298.049
298.047
298.056
298.124
300.247
308.763
298.38
298.147
298.131
298.118
298.068
298.063
298.072
298.151
300.086
322.84
299.263
298.997
298.812
298.502
298.298
298.431
299.419
303.857
331.061
340.616
301.491
300.629
300.117
299.685
299.268
299.779
302.712
317.62
369.889
335.511
311.382
307.04
303.502
303.033
301.894
304.624
317.942
360.857
401.959
331.489
331.312
324.823
321.698
324.486
314.368
318.595
347.151
404.629
417.292
325.738
393.354
371.778
341.763
344.336
333.711
340.339
390.259
428.557
420.156
317.706
761.515
616.929
399.961
348.017
347.505
371.232
412.425
439.797
421.112
314.375
1455.74
1420.81
683.47
375.601
346.729
383.589
415.562
440.254
418.666
311.254
1562.86
1691.16
913.432
417.976
360.651
380.926
411.656
442.145
420.351
309.446
1527.59
1321.28
738.829
415.264
383.805
389.438
411.613
444.19
419.493
308.509
1527.4
1321.19
738.831
415.245
383.81
389.439
411.614
444.194
419.495
308.509
1562.42
1691.08
913.359
417.939
360.696
380.943
411.666
442.163
420.358
309.447
1455.66
1420.84
683.518
375.605
346.763
383.636
415.572
440.267
418.673
311.254
761.319
616.943
399.979
348.02
347.559
371.242
412.431
439.807
421.125
314.376
393.332
371.792
341.776
344.344
333.755
340.346
390.267
428.556
420.17
317.709
331.307
324.831
321.705
324.491
314.366
318.604
347.169
404.64
417.31
325.743
311.378
307.047
303.506
303.035
301.897
304.626
317.948
360.867
401.977
331.497
301.491
300.63
300.118
299.686
299.269
299.779
302.713
317.624
369.904
335.524
299.264
298.998
298.812
298.502
298.298
298.431
299.419
303.858
331.064
340.631
298.379
298.147
298.131
298.118
298.068
298.063
298.072
298.151
300.086
322.848
299.727
299.031
298.476
298.199
298.102
298.125
298.134
298.368
305.127
339.988
303.661
303.458
302.474
300.044
299.342
299.751
300.345
310.628
366.848
366.463
311.964
310.591
309.268
303.89
303.023
307.797
310.082
339.776
432.015
359.676
344.536
330.819
327.183
317.676
320.824
339.438
346.648
414.535
481.648
351.975
378.074
372.131
372.788
368.998
374.229
382.996
396.993
478.571
501.963
339.646
402.449
389.919
397.133
397.508
384.457
392.033
453.977
518.567
517.489
335.824
572.577
497.819
415.101
393.572
381.596
406.045
475.922
530.901
523.012
332.88
1190
956.766
551.419
399.13
373.877
411.282
475.373
535.423
522.5
328.854
1540.95
1642.29
920.003
439.292
375.606
402.931
457.113
539.927
509.237
319.236
1544.11
1463.55
810.824
438.525
394.44
406.925
447.865
529.817
503.842
318.069
1543.89
1463.52
810.774
438.493
394.435
406.925
447.865
529.818
503.844
318.069
1540.5
1642.11
919.877
439.245
375.612
402.937
457.12
539.937
509.241
319.235
1189.66
956.603
551.387
399.125
373.905
411.267
475.381
535.438
522.505
328.852
572.44
497.786
415.11
393.58
381.632
406.05
475.932
530.905
523.024
332.879
402.43
389.923
397.14
397.524
384.468
392.047
453.984
518.582
517.515
335.825
378.069
372.135
372.797
369.018
374.238
383.017
397.003
478.578
501.979
339.647
344.522
330.821
327.191
317.687
320.831
339.462
346.667
414.549
481.664
351.98
311.968
310.597
309.273
303.896
303.025
307.802
310.086
339.787
432.033
359.685
303.667
303.46
302.476
300.046
299.342
299.752
300.346
310.631
366.849
366.474
299.726
299.029
298.476
298.199
298.102
298.125
298.134
298.368
305.124
339.993
302.156
300.778
299.229
298.841
298.243
298.181
298.486
300.159
339.128
353.492
316.953
317.943
313.74
311.875
303.481
302.213
309.677
341.45
479.819
391.788
367.675
348.149
337.292
333.179
318.711
318.555
355.266
432.295
546.188
380.455
464.651
446.209
428.138
422.595
406.791
395.055
451.534
538.688
599.619
374.77
460.304
467.652
469.71
475.324
469.188
469.808
514.796
606.553
631.251
377.399
474.299
477.79
468.545
483.813
485.494
473.026
555.032
642.607
641.497
354.875
581.238
514.204
459.864
500.204
449.562
460.882
569.433
671.921
678.232
358.216
1092.72
799.057
552.158
459.998
449.773
437.791
542.557
673.59
680.591
353.404
1533.63
1519.96
910.467
483.533
411.258
423.604
499.125
647.095
617.236
342.34
1561.48
1531.23
854.88
480.53
419.326
422.761
468.043
605.254
609.402
340.532
1561.34
1531.16
854.802
480.475
419.31
422.755
468.043
605.257
609.404
340.531
1533.28
1519.74
910.33
483.493
411.233
423.616
499.141
647.099
617.251
342.336
1092.44
798.958
552.123
459.997
449.781
437.793
542.571
673.617
680.591
353.388
581.135
514.173
459.865
500.222
449.562
460.869
569.432
671.948
678.241
358.2
474.282
477.797
468.539
483.829
485.492
472.994
555.03
642.625
641.5
354.865
460.31
467.657
469.688
475.369
469.201
469.775
514.797
606.566
631.269
377.388
464.657
446.207
428.124
422.642
406.813
395.039
451.546
538.693
599.633
374.764
367.678
348.153
337.296
333.198
318.718
318.554
355.263
432.302
546.193
380.456
316.97
317.95
313.742
311.88
303.484
302.213
309.678
341.45
479.807
391.79
302.155
300.778
299.229
298.841
298.243
298.181
298.486
300.16
339.094
353.49
311.409
305.372
300.352
300.97
299.418
299.32
300.267
314.54
342.155
366.522
369.884
351.992
333.339
345.861
324.953
323.975
340.014
455.372
531.459
410.221
583.191
494.231
389.832
418.385
384.421
399.694
482.293
624.33
656.317
396.516
665.981
650.084
566.116
605.395
578.831
595.487
632.276
718.358
733.639
402.824
618.348
648.824
618.122
653.089
644.333
632.233
677.081
780.856
808.727
428.537
545.86
570.661
569.463
633.645
636.143
604.974
688.152
813.926
818.369
389.551
641.741
587.509
568.331
576.058
568.182
546.81
678.966
807.562
756.276
361.048
1131.03
813.842
590.13
537.855
500.302
490.093
631.678
800.409
755.756
359.857
1552.27
1487.11
911.62
580.717
464.643
457.608
528.474
752.682
829.954
436.638
1570.54
1568.47
873.079
531.138
443.153
442.364
484.343
661.581
810.324
412.747
1570.42
1568.42
872.982
531.069
443.144
442.363
484.344
661.589
810.327
412.731
1552.01
1486.99
911.508
580.677
464.628
457.582
528.444
752.709
829.935
436.615
1130.88
813.755
590.092
537.846
500.269
490.097
631.663
800.409
755.703
359.822
641.624
587.49
568.338
576.079
568.16
546.847
678.971
807.578
756.225
361.02
545.872
570.664
569.486
633.68
636.143
605.052
688.147
813.941
818.343
389.512
618.411
648.843
618.178
653.155
644.352
632.429
677.074
780.842
808.721
428.488
666.03
650.118
566.206
605.451
578.816
595.807
632.271
718.336
733.603
402.801
583.202
494.248
389.89
418.412
384.441
399.762
482.283
624.309
656.306
396.512
369.91
352.015
333.362
345.87
324.974
323.966
340.015
455.401
531.452
410.209
311.408
305.374
300.349
300.975
299.417
299.319
300.268
314.549
342.157
366.508
340.518
318.217
309.215
302.687
315.304
317.281
315.785
370.783
397.52
379.71
546.757
441.412
433.226
377.94
481.684
489.767
476.466
675.426
643.205
413.206
978.316
785.097
672.398
513.755
639.45
774.649
755.818
861.244
787.397
410.826
918.476
901.571
859.963
802.931
855.207
868.724
882.098
943.185
912.967
470.305
738.265
873.02
854.148
856.685
875.656
859.803
887.169
968.767
888.072
397.509
635.894
696.566
752.122
814.493
832.449
794.73
862.509
970.482
867.711
374.886
736.123
679.401
659.709
678.732
720.01
677.874
816.141
978.841
982.415
462.658
1220.45
905.831
675.288
651.862
576.472
574.988
702.618
942.988
995.034
510.141
1576.95
1519.79
938.641
620.928
561.289
519.842
571.589
819.087
983.455
437.913
1574.94
1600.23
935.201
576.03
483.853
470.363
505.523
686.513
939.959
419.205
1574.83
1600.18
935.082
575.975
483.819
470.354
505.523
686.527
939.956
419.179
1576.73
1519.77
938.556
620.889
561.25
519.83
571.625
819.224
983.472
437.882
1220.42
905.86
675.253
651.859
576.444
575.01
702.604
943.038
994.966
509.977
736.111
679.39
659.707
678.724
719.998
677.879
816.089
978.857
982.289
462.474
635.929
696.557
752.108
814.537
832.574
794.714
862.462
970.448
867.568
374.818
738.296
873.06
854.237
856.821
875.916
859.443
887.163
968.72
887.95
397.452
918.535
901.626
860.083
803.256
855.865
867.769
882.047
943.108
912.874
470.185
978.363
785.029
672.513
514.043
640.551
773.424
755.717
861.19
787.327
410.8
546.759
441.374
433.307
378.069
481.537
489.742
476.405
675.418
643.177
413.182
340.521
318.208
309.226
302.702
315.324
317.253
315.78
370.818
397.539
379.701
384.326
350.628
337.525
336.41
344.24
339.898
388.257
395.305
415.631
397.027
746.514
626.108
591.761
599.249
644.151
625.857
757.139
767.848
702.223
457.752
1198.88
1129.11
979.99
862.586
929.288
1033.98
1079.59
1090.43
897.315
445.132
1030.51
1110.97
1108.89
1082.45
1109.25
1117.16
1146.41
1157.94
1020.4
461.731
852.998
942.271
1042.71
1089.38
1091
1083.98
1103.2
1164.64
1084.51
488.66
795.285
788.094
881.874
1029.46
1033.66
993.26
1033.61
1145.78
1086.2
521.211
946.314
770.963
738.307
837.018
889.572
841.304
938.207
1118.62
1080
440.522
1418.55
1000.22
769.373
715.658
671.207
669.879
786.413
1042.32
1125.27
474.693
1597.49
1577.82
1034.91
706.138
629.543
604.035
638.283
859.061
1086.52
481.364
1578.2
1688.14
999.422
671.469
561.752
526.809
547.685
712.985
992.595
429.122
1578.09
1688.11
999.271
671.453
561.744
526.794
547.68
713.01
992.6
429.085
1597.32
1577.85
1034.87
706.068
629.565
604.019
638.277
859.267
1086.6
481.262
1418.84
1000.3
769.354
715.661
671.174
669.841
786.415
1042.48
1125.14
474.522
946.502
770.995
738.306
836.86
889.362
841.241
938.132
1118.63
1079.77
440.381
795.402
788.1
881.776
1029.45
1033.62
993.215
1033.55
1145.73
1085.93
520.935
853.071
942.273
1042.72
1089.55
1091.15
1083.89
1103.16
1164.56
1084.29
488.369
1030.59
1111.02
1109.01
1082.68
1109.44
1117.25
1146.35
1157.81
1020.19
461.586
1198.85
1129.09
980.107
862.989
929.662
1034.14
1079.51
1090.27
897.168
445.015
746.51
626.095
591.938
599.608
644.322
625.999
757.238
767.922
702.21
457.684
384.354
350.624
337.572
336.512
344.275
339.928
388.319
395.358
415.654
397.028
469.572
406.279
466.091
391.43
389.681
403.13
465.568
417.515
481.789
427.803
795.849
758.181
853.327
832.441
783.428
806.139
969.456
859.407
840.23
499.342
1213.9
1245.03
1237.01
1178.93
1153.01
1238.84
1326.17
1283.45
1044.76
516.696
1288.83
1271.94
1303.83
1326.99
1351.68
1355.23
1372.31
1366.18
1177.63
526.848
1149.13
1058.19
1122.58
1256.9
1330.85
1301.29
1308.65
1350.21
1153.35
475.979
1106.66
954.366
952.577
1179.4
1248.13
1178.51
1203.9
1308.57
1223.51
515.385
1274.63
966.316
841.2
994.393
1071.21
997.526
1072.87
1242.31
1214.35
553.719
1546.34
1213.46
851.671
812.512
813.636
781.931
865.685
1116.45
1204.62
511.41
1593.89
1652.38
1090.36
772.208
709.976
689.747
712.553
896.674
1161.86
510.043
1568.71
1738.24
1066.06
769.533
674.952
626.77
630.319
759.061
1057.39
499.873
1568.69
1738.19
1065.86
769.495
674.904
626.811
630.369
759.133
1057.44
499.825
1593.77
1652.4
1090.17
772.238
709.727
689.848
712.779
897.089
1162.03
509.951
1546.44
1213.63
851.649
812.486
813.746
782.064
865.951
1116.92
1204.52
511.21
1274.93
966.371
841.21
994.605
1071.32
997.545
1073.02
1242.52
1214.18
553.481
1106.8
954.397
952.557
1179.45
1248.15
1178.5
1203.99
1308.63
1223.17
515.06
1149.21
1058.22
1122.6
1256.91
1330.82
1301.27
1308.67
1350.17
1152.98
475.788
1288.85
1271.96
1303.82
1327.17
1351.91
1355.38
1372.24
1366.03
1177.19
526.476
1213.76
1244.99
1237.21
1179.48
1153.48
1239.11
1326.07
1283.43
1044.51
516.657
795.74
758.348
853.634
833.27
783.658
806.109
969.346
859.427
840.022
499.25
469.584
406.275
466.45
391.78
389.759
403.159
465.561
417.547
481.732
427.701
458.322
468.569
462.283
446.916
477.308
485.414
525.512
507.371
524.957
440.654
638.614
797.508
920.346
937.514
960.429
997.249
1137.29
986.579
940.528
534.688
867.456
1200.37
1303.97
1331.64
1400.49
1474.92
1520.89
1441
1130.54
529.338
1251.12
1361.65
1378.15
1436.36
1538.99
1563.1
1549.54
1526.61
1242.34
529.355
1475.56
1405.62
1260.87
1348.62
1497.31
1504.96
1477.53
1503.97
1280.94
547.077
1568.52
1388.56
1082.23
1247.03
1420.37
1364.84
1349.87
1448.7
1339.23
577.296
1584.79
1386.28
992.633
1113.51
1243.74
1162.33
1182.96
1353.58
1352.34
590.863
1612.28
1514.2
1004.74
948.698
985.368
926.947
961.019
1183.08
1297.47
582.074
1600.49
1697.12
1186.78
870.168
840.206
802.059
804.751
961.096
1214.72
556.819
1572.83
1749.57
1165.03
856.049
775.451
733.894
728.864
837.74
1137.63
565.84
1572.83
1749.56
1164.8
855.939
775.482
733.964
728.896
837.843
1137.71
565.771
1600.43
1697.12
1186.48
870.043
840.637
802.099
804.967
961.635
1214.9
556.635
1612.26
1514.31
1004.67
948.859
985.533
927.005
961.4
1183.79
1297.5
581.897
1584.81
1386.36
992.705
1113.29
1243.77
1162.5
1183.3
1354.01
1352.21
590.561
1568.53
1388.61
1082.24
1247.41
1420.83
1365.12
1350.16
1448.94
1338.9
576.946
1475.56
1405.62
1261
1348.75
1497.7
1505.16
1477.68
1504.04
1280.47
546.702
1250.96
1361.6
1378.15
1436.44
1539.18
1563.25
1549.56
1526.55
1241.81
529.14
867.314
1200.33
1304.11
1331.93
1400.84
1475.11
1520.93
1440.69
1129.92
528.881
638.598
797.63
920.913
938.041
960.694
997.344
1137.39
986.316
940.82
534.622
458.305
468.602
462.559
447.138
477.345
485.406
525.607
507.238
525.142
440.836
448.472
506.935
503.886
521.814
516.695
619.498
549.881
563.505
543.592
458.677
570.688
847.724
1040.25
1104.32
1129.97
1327.81
1218.54
1146.11
1018.41
576.356
642.823
1145.82
1390.46
1464.2
1597.21
1667.42
1653.19
1539.26
1253.71
577.317
798.515
1321.89
1422.69
1512.04
1671.91
1721.57
1700.47
1607.82
1340.65
590.802
1079.99
1433.42
1414.76
1472.81
1627.99
1664.56
1619.15
1606.84
1421.56
607.049
1353.31
1539.84
1380.25
1384.39
1530.91
1530.01
1481.74
1552.04
1432.74
629.396
1568.03
1628.62
1354.23
1265.68
1386.32
1331.19
1305.66
1441.81
1435.58
611.659
1623.73
1672.4
1368.06
1119.66
1174.3
1099.12
1086.74
1264.42
1361.27
600.78
1620
1724.59
1442.73
1039.97
1015.71
953.425
926.028
1060.88
1309.18
633.879
1601.68
1745.65
1390.59
997.55
910.347
852.912
839.269
942.343
1221.9
626.867
1601.69
1745.66
1390.36
997.409
910.508
853.036
839.346
942.472
1221.99
626.798
1619.97
1724.6
1442.43
1039.37
1017.02
953.809
926.218
1061.42
1309.43
633.787
1623.71
1672.43
1367.96
1119.8
1174.8
1099.72
1087.34
1265.23
1361.34
600.586
1568.04
1628.63
1354.17
1266.75
1387.29
1331.91
1306.34
1442.37
1435.55
611.3
1353.27
1539.8
1380.22
1384.43
1530.41
1530.17
1482.19
1552.4
1432.58
628.998
1079.89
1433.35
1414.77
1472.94
1628.17
1664.75
1619.42
1606.97
1421.4
606.655
798.439
1321.84
1422.64
1512.16
1672.1
1721.74
1700.56
1607.76
1340.07
590.457
642.869
1145.98
1390.58
1464.42
1597.46
1667.55
1653.14
1539.07
1253.47
577
570.77
848.018
1041.1
1105.09
1130.35
1327.74
1218.12
1146.36
1018.44
576.214
448.483
507.071
504.159
521.967
516.797
619.356
549.606
563.602
543.542
458.675
502.683
533.661
531.367
627.285
598.457
582.924
628.309
689.615
621.79
502.58
575.732
952.463
1106.8
1386.5
1361.56
1346.12
1319.68
1309.03
1117
614.671
594.287
1231.24
1537.19
1640.58
1746.64
1766.59
1730.27
1555.56
1307.11
636.62
624.826
1345.96
1538.17
1635.85
1795.18
1822.75
1781.25
1621.96
1413.78
677.378
703.115
1457.54
1560.27
1631.72
1771.86
1807.7
1760.22
1637.3
1450.4
660.943
796.654
1535.58
1575.48
1592.59
1693.99
1712.11
1637.21
1617.34
1480.39
652.961
919.96
1615.18
1592.6
1483.46
1554.51
1531.87
1455.69
1539.19
1469.63
630.396
1047.34
1643.48
1606.91
1377.61
1383.49
1316.47
1250.61
1371.67
1446.75
681.111
1158.61
1682.42
1639.32
1291.13
1231.95
1149.71
1093.55
1187.12
1392.3
678.273
1212.16
1700.1
1620.82
1228.26
1113.03
1012.57
987.973
1080.99
1332.33
671.401
1212.14
1700.11
1620.7
1228.03
1113.2
1012.82
988.112
1081.14
1332.42
671.313
1158.54
1682.43
1639.15
1290.02
1232.6
1150.78
1094.26
1187.74
1392.51
678.105
1047.31
1643.49
1606.79
1376.98
1383.78
1317.28
1251.46
1372.46
1446.89
680.909
919.92
1615.13
1592.5
1482.76
1554.55
1532.36
1456.57
1539.73
1469.59
630.116
796.634
1535.53
1575.4
1592.76
1694.7
1712.77
1637.85
1617.66
1480.32
652.628
703.115
1457.52
1560.22
1631.76
1772.57
1808.04
1760.48
1637.43
1450.29
660.576
624.926
1345.97
1538.14
1635.97
1795.37
1822.9
1781.36
1621.94
1413.44
676.99
594.423
1231.51
1537.33
1640.78
1746.84
1766.67
1730.28
1555.32
1306.94
636.243
575.854
953.024
1107.75
1387.41
1361.95
1345.95
1319.44
1308.89
1116.77
614.465
502.714
533.774
531.571
627.569
598.442
582.748
628.163
689.848
621.566
502.336
491.122
659.674
686.788
651.641
691.918
660.3
696.102
771.938
648.522
520.001
582.819
1234.18
1467.47
1538.52
1591.93
1477.27
1455.08
1331.59
1115.57
624.249
597.953
1436.38
1740.19
1803.73
1831.59
1805.73
1742.34
1481.42
1261.43
646.739
607.637
1526.49
1757.58
1823.7
1874.74
1864.58
1799.95
1555.67
1373.22
666.126
637.827
1605.22
1769.03
1820.2
1882.51
1879.74
1812.82
1599.23
1424.26
697.773
659.917
1648.04
1774.32
1802.19
1852.6
1852.77
1781.44
1611.72
1463.44
699.107
693.05
1678.51
1754.73
1739.74
1782.14
1783.14
1697.25
1586.01
1467.88
722.696
726.812
1671.51
1751.95
1687.84
1686.74
1653.36
1512.35
1501.18
1455.12
714.889
761.755
1694.81
1757.91
1642.12
1553.91
1475.13
1319.86
1372.06
1414.78
706.808
780.192
1704.87
1754.43
1579
1416.11
1283.71
1196
1269.88
1387.64
759.56
780.17
1704.88
1754.4
1578.87
1416.31
1284
1196.18
1270.04
1387.71
759.453
761.738
1694.82
1757.87
1641.46
1554.95
1475.79
1320.27
1372.41
1414.89
706.691
726.803
1671.51
1751.91
1687.53
1686.61
1653.19
1512.94
1501.56
1455.22
714.71
693.05
1678.39
1754.69
1739.59
1781.99
1783.1
1697.66
1586.4
1467.93
722.448
659.97
1648.02
1774.28
1801.92
1852.69
1853.12
1781.71
1611.96
1463.43
698.843
637.969
1605.24
1769
1820.15
1882.66
1879.92
1813.07
1599.39
1424.29
697.535
607.803
1526.76
1757.65
1823.75
1874.86
1864.71
1800.06
1555.31
1373
665.943
598.132
1436.83
1740.36
1803.84
1831.65
1805.75
1742.36
1481.78
1261.26
646.728
582.953
1235.03
1468.17
1538.86
1591.6
1477.25
1454.98
1332.59
1115.57
624.13
491.113
660.018
686.817
651.703
691.61
660.216
695.913
771.262
647.61
519.637
536.958
754.063
830.142
1075.36
903.68
839.501
826.024
764.933
691.375
478.635
602.765
1428.38
1649.73
1750.97
1729.13
1588.18
1481.22
1222.12
1032.92
562.888
614.593
1626.57
1834.18
1857.5
1837.71
1785.9
1689.76
1328.45
1137.54
576.692
618.347
1702.9
1877.6
1892.63
1892.18
1854.74
1759.17
1438.55
1265.65
640.631
643.339
1745.82
1885.68
1904.44
1911.44
1884.58
1797.11
1493.15
1316.61
660.075
656.103
1795.43
1871.09
1889.94
1917.53
1895.77
1805.22
1539.67
1370.88
701.488
665.691
1806.11
1859.12
1868.67
1897.9
1883.25
1789.26
1538.8
1387.35
723.119
674.559
1795.49
1845.33
1847.72
1869.62
1854.26
1749.17
1522.03
1409.75
731.372
692.759
1792.12
1842.62
1833.31
1830.6
1791.43
1652.78
1460.61
1389.83
727.459
703.017
1796.11
1842.56
1819.54
1785.96
1709.98
1544.04
1414.35
1378.67
737.984
703.002
1796.13
1842.56
1819.53
1786.02
1710.16
1544.17
1414.43
1378.72
737.936
692.744
1792.13
1842.62
1833.24
1830.67
1792.16
1652.95
1460.65
1389.84
727.395
674.621
1795.49
1845.33
1847.66
1869.54
1854.45
1749.61
1522.26
1409.82
731.278
665.816
1806.2
1859.13
1868.73
1897.57
1884.03
1789.6
1539.06
1387.46
723.039
656.231
1795.44
1871.09
1889.98
1917.47
1895.22
1805.39
1539.86
1371.01
701.442
643.499
1745.84
1885.69
1904.41
1911.44
1884.56
1797.24
1493.64
1316.83
660.134
618.52
1703.05
1877.61
1892.64
1892.23
1854.79
1759.24
1438.61
1265.74
640.754
614.752
1626.82
1834.22
1857.54
1837.72
1785.9
1689.76
1327.67
1137.12
577.046
602.917
1428.78
1649.68
1751.09
1729.12
1588.17
1481.16
1221.74
1032.91
563.068
536.988
754.328
829.749
1075.42
903.53
839.459
825.753
764.418
690.592
478.683
543.499
1013.81
1068.67
1007.94
864.602
976.048
884.278
678.76
610.342
374.792
600.509
1534.68
1704.29
1666.98
1579.15
1519.57
1379.34
1002.48
803.793
428.337
640.044
1664.67
1833.11
1811.72
1753.9
1650.03
1517.8
1106.67
864.431
445.809
661.636
1758.39
1888.73
1881.21
1847.46
1763.81
1639.63
1239.52
1071.23
512.968
699.831
1821.24
1905.11
1907.84
1892.93
1823.42
1700.11
1297.19
1139.45
541.133
726.521
1853.58
1898.77
1909.16
1911.86
1867.74
1761.39
1391.6
1259.81
612.886
743.364
1863.87
1891.72
1900.26
1915.92
1884.57
1783.23
1425.04
1276.82
644.968
756.143
1862.5
1883.52
1891.51
1907.68
1886.03
1785.85
1450
1307.59
697.884
773.489
1865.32
1880.2
1884.17
1903.16
1871.66
1765.44
1436.59
1305.97
702.901
782.85
1867.18
1880.63
1880.25
1893.34
1854.63
1739.15
1428.69
1314.89
716.786
782.833
1867.19
1880.64
1880.27
1893.34
1854.72
1739.24
1428.74
1314.91
716.798
773.472
1865.31
1880.21