/*--------------------------------*- C++ -*----------------------------------*\
  =========                 |
  \\      /  F ield         | OpenFOAM: The Open Source CFD Toolbox
   \\    /   O peration     | Website:  https://openfoam.org
    \\  /    A nd           | Version:  7
     \\/     M anipulation  |
\*---------------------------------------------------------------------------*/
FoamFile
{
    version     2.0;
    format      ascii;
    class       volVectorField;
    location    "1";
    object      U;
}
// * * * * * * * * * * * * * * * * * * * * * * * * * * * * * * * * * * * * * //

dimensions      [0 1 -1 0 0 0 0];

internalField   nonuniform List<vector> 
4000
(
(0.000561373 0.540882 0.105042)
(0.0528507 0.505412 0.102631)
(0.041601 0.508139 -0.00475048)
(-0.00326959 0.465728 -0.0033221)
(-0.0186223 0.384056 0.0032248)
(-0.0166723 0.306554 0.00250749)
(-0.0225239 0.225454 0.00518653)
(-0.0205658 0.146054 0.00203612)
(-0.0158645 0.0769682 -0.000159313)
(-0.0127124 0.0203425 -0.000489941)
(-0.0202582 1.29174 0.289385)
(-0.0972359 1.2451 0.344328)
(-0.0489651 0.635572 -0.0248664)
(-0.0559056 0.479382 -0.0150897)
(-0.0577192 0.375692 0.000707191)
(-0.0593456 0.304323 0.0167822)
(-0.0607486 0.216329 0.0102618)
(-0.0507367 0.139993 0.0012738)
(-0.0411124 0.0754354 -0.0015516)
(-0.0364139 0.0215482 -0.00147963)
(-0.0574505 1.35327 0.441)
(-0.351543 1.19793 0.534772)
(-0.180634 0.673912 -0.0187892)
(-0.123367 0.488843 -0.0226018)
(-0.0911568 0.382964 0.0030127)
(-0.111003 0.288489 0.0312353)
(-0.0935801 0.201594 0.00656088)
(-0.0807493 0.133403 0.000989705)
(-0.0694257 0.0736857 -0.0016318)
(-0.0627439 0.0222277 -0.00175598)
(-0.130264 0.934227 0.580167)
(-0.560326 0.747853 0.632011)
(-0.289559 0.672914 0.0143446)
(-0.208166 0.478268 -0.0183367)
(-0.138255 0.382528 0.0284508)
(-0.146327 0.254259 0.0242512)
(-0.129164 0.186629 0.00614658)
(-0.110699 0.125456 0.00237604)
(-0.0979281 0.0707264 -0.000745393)
(-0.089162 0.0221358 -0.00155828)
(-0.231919 0.467182 0.604747)
(-0.734269 0.370763 0.482373)
(-0.395207 0.638929 0.0493018)
(-0.298352 0.444255 -0.0108635)
(-0.204555 0.33448 0.0524149)
(-0.16906 0.227448 0.0093498)
(-0.1629 0.17152 0.0105432)
(-0.140013 0.113975 0.00498022)
(-0.124325 0.0657155 0.00049081)
(-0.114507 0.0209931 -0.00104413)
(-0.378886 0.0983548 0.474386)
(-0.842299 0.195054 0.364364)
(-0.493383 0.585914 0.0954376)
(-0.373105 0.396564 0.0156335)
(-0.248188 0.252196 0.0333825)
(-0.214629 0.204464 0.014109)
(-0.18186 0.152111 0.012387)
(-0.169775 0.0990295 0.00860788)
(-0.147283 0.0580318 0.00191854)
(-0.137665 0.018887 -0.000381088)
(-0.509195 -0.0550029 0.447743)
(-0.925295 0.178295 0.49966)
(-0.591137 0.494337 0.138927)
(-0.411115 0.303258 0.0400337)
(-0.262239 0.190045 0.00510144)
(-0.271352 0.16723 0.0270552)
(-0.193762 0.125644 0.0146038)
(-0.195461 0.0823297 0.0115589)
(-0.166809 0.0475186 0.00345671)
(-0.157525 0.0160249 0.000287373)
(-0.632049 -0.0900377 0.494382)
(-1.04886 0.130407 0.545898)
(-0.66104 0.354805 0.111562)
(-0.400916 0.173505 0.0152124)
(-0.290665 0.155385 0.0192422)
(-0.293091 0.11744 0.0255194)
(-0.215392 0.0923291 0.0210805)
(-0.21157 0.0633612 0.0130565)
(-0.183216 0.0349066 0.00495844)
(-0.173106 0.0123029 0.000852103)
(-0.679956 -0.0991271 0.462094)
(-1.12811 0.057878 0.485032)
(-0.675709 0.219607 0.0552349)
(-0.38432 0.0788215 -0.0068884)
(-0.335058 0.111884 0.0454265)
(-0.283275 0.0698675 0.020467)
(-0.24135 0.05534 0.0259127)
(-0.219226 0.0405032 0.0144291)
(-0.195427 0.0212042 0.00596764)
(-0.183774 0.00777847 0.00131323)
(-0.706456 -0.0401012 0.429722)
(-1.1756 0.0154887 0.472764)
(-0.667004 0.0789259 0.0481188)
(-0.374564 0.0247811 0.0281456)
(-0.36829 0.0408067 0.0431657)
(-0.271967 0.0243481 0.0239361)
(-0.257846 0.0181254 0.0258564)
(-0.222054 0.0140032 0.0159134)
(-0.201931 0.00709044 0.00636963)
(-0.189181 0.00267149 0.00157378)
(-0.706525 0.0403227 0.429716)
(-1.17561 -0.0156661 0.47276)
(-0.666994 -0.0788946 0.0481138)
(-0.374561 -0.0248055 0.0281527)
(-0.368289 -0.0408138 0.043163)
(-0.271965 -0.0243536 0.0239358)
(-0.257845 -0.0181282 0.0258563)
(-0.222053 -0.0140054 0.0159134)
(-0.201931 -0.00709177 0.0063696)
(-0.189181 -0.00267239 0.00157374)
(-0.680118 0.0993076 0.462052)
(-1.12811 -0.0579994 0.485005)
(-0.675707 -0.219568 0.0552123)
(-0.384314 -0.07884 -0.0068851)
(-0.335058 -0.111892 0.0454188)
(-0.283269 -0.0698725 0.0204659)
(-0.241348 -0.0553429 0.0259125)
(-0.219224 -0.0405053 0.0144289)
(-0.195426 -0.0212053 0.00596772)
(-0.183773 -0.0077792 0.00131319)
(-0.632075 0.0899764 0.494415)
(-1.04885 -0.13041 0.54585)
(-0.661055 -0.354761 0.111551)
(-0.40091 -0.173509 0.015199)
(-0.290665 -0.155392 0.0192334)
(-0.293083 -0.117443 0.0255177)
(-0.215388 -0.0923316 0.0210801)
(-0.211567 -0.063363 0.0130561)
(-0.183213 -0.0349074 0.00495848)
(-0.173105 -0.0123034 0.000851984)
(-0.509202 0.0550059 0.447826)
(-0.925294 -0.178326 0.499676)
(-0.591149 -0.494297 0.138929)
(-0.411114 -0.303251 0.0400182)
(-0.262234 -0.190041 0.00508658)
(-0.271346 -0.16723 0.0270501)
(-0.193756 -0.125645 0.0146027)
(-0.195457 -0.0823309 0.0115584)
(-0.166806 -0.0475189 0.00345678)
(-0.157522 -0.016025 0.000287258)
(-0.378895 -0.0983522 0.474349)
(-0.842283 -0.195088 0.364389)
(-0.493396 -0.585897 0.0954529)
(-0.373094 -0.396559 0.0156151)
(-0.248179 -0.25221 0.0334248)
(-0.214626 -0.204467 0.0141077)
(-0.181853 -0.152111 0.0123848)
(-0.169769 -0.0990295 0.00860731)
(-0.147279 -0.0580315 0.00191848)
(-0.137663 -0.0188867 -0.000381278)
(-0.23195 -0.467074 0.604673)
(-0.734293 -0.370732 0.48233)
(-0.39523 -0.638915 0.0493105)
(-0.29835 -0.444242 -0.0108806)
(-0.204541 -0.334488 0.0523735)
(-0.169046 -0.227452 0.00934371)
(-0.162892 -0.17152 0.0105406)
(-0.140007 -0.113975 0.00497943)
(-0.12432 -0.0657151 0.000490631)
(-0.114504 -0.0209925 -0.00104441)
(-0.130298 -0.934162 0.580146)
(-0.560404 -0.747808 0.631982)
(-0.289595 -0.672914 0.0143425)
(-0.208177 -0.478252 -0.0183466)
(-0.138241 -0.382515 0.0284417)
(-0.14631 -0.254252 0.0242465)
(-0.129154 -0.186624 0.00614405)
(-0.110691 -0.125453 0.00237501)
(-0.0979233 -0.0707246 -0.000745767)
(-0.0891581 -0.0221345 -0.00155867)
(-0.0574771 -1.35324 0.440979)
(-0.351646 -1.19789 0.534745)
(-0.180669 -0.673927 -0.0187946)
(-0.12338 -0.488841 -0.0226045)
(-0.0911526 -0.382953 0.00300849)
(-0.11099 -0.288478 0.0312328)
(-0.0935685 -0.201584 0.00655943)
(-0.0807415 -0.133397 0.000988753)
(-0.0694207 -0.0736825 -0.0016323)
(-0.0627399 -0.0222261 -0.00175645)
(-0.0202766 -1.29176 0.28936)
(-0.0973065 -1.2451 0.3443)
(-0.0489915 -0.63558 -0.024879)
(-0.0559123 -0.479378 -0.0150919)
(-0.0577223 -0.375685 0.000706505)
(-0.0593427 -0.304316 0.0167815)
(-0.060741 -0.216321 0.0102617)
(-0.0507299 -0.139987 0.00127361)
(-0.0411078 -0.075431 -0.00155178)
(-0.0364102 -0.021546 -0.00148005)
(0.000556544 -0.540866 0.105071)
(0.0528577 -0.505377 0.102656)
(0.0415985 -0.508137 -0.00475495)
(-0.00327248 -0.465718 -0.00332366)
(-0.0186255 -0.384045 0.00322454)
(-0.0166751 -0.306546 0.0025072)
(-0.0225242 -0.225447 0.00518629)
(-0.0205636 -0.146047 0.002036)
(-0.0158619 -0.076963 -0.000159348)
(-0.0127101 -0.0203396 -0.000490129)
(0.0176823 0.103262 0.338254)
(0.110223 0.130993 0.276906)
(0.0443109 0.336756 -0.0164554)
(0.00642925 0.426199 -0.00551421)
(-0.00980002 0.394887 0.00832963)
(-0.0143681 0.333343 0.00532599)
(-0.0275482 0.249111 0.0158073)
(-0.0236975 0.153423 0.00668545)
(-0.0165345 0.0733658 -0.00212449)
(-0.0102363 0.0140586 -0.00359997)
(0.0444758 0.524639 0.573002)
(0.135646 0.620803 0.623016)
(0.0854698 0.408887 -0.0519824)
(0.00913698 0.438954 -0.0300992)
(-0.0343111 0.388443 0.0156376)
(-0.0518219 0.335266 0.0301844)
(-0.0579247 0.240513 0.0360715)
(-0.0512533 0.144494 0.00274032)
(-0.0409766 0.0735194 -0.0077796)
(-0.0320596 0.0181707 -0.00752207)
(0.106708 0.798042 0.793217)
(0.0837597 1.04099 1.07699)
(0.090381 0.528092 -0.00787651)
(0.00670964 0.467846 -0.0497764)
(-0.0476121 0.400958 0.0096577)
(-0.0942652 0.334192 0.0841474)
(-0.079508 0.217299 0.0283599)
(-0.0825626 0.138171 0.000510786)
(-0.0710595 0.0743713 -0.00774591)
(-0.0589161 0.0208269 -0.0086222)
(0.152227 0.907983 1.32112)
(-0.0611246 1.15757 1.69453)
(0.0480413 0.664847 0.103873)
(-0.0256897 0.49731 -0.048167)
(-0.0636035 0.425739 0.021924)
(-0.113696 0.308058 0.111882)
(-0.116158 0.195025 0.0212335)
(-0.114746 0.133401 0.00638826)
(-0.101842 0.073152 -0.00471851)
(-0.0869169 0.0221339 -0.00791116)
(0.140134 0.743403 1.8633)
(-0.302308 0.96245 2.09085)
(-0.0459776 0.734077 0.252806)
(-0.114356 0.505614 -0.0257418)
(-0.12818 0.427136 0.08444)
(-0.114179 0.270273 0.0943744)
(-0.162878 0.18169 0.0305019)
(-0.14436 0.123914 0.0146643)
(-0.131291 0.0693278 -0.000508857)
(-0.114374 0.0219082 -0.0062599)
(-0.0884582 0.319251 1.79854)
(-0.649402 0.48249 1.82422)
(-0.179396 0.711785 0.380925)
(-0.201407 0.500074 0.00461033)
(-0.207351 0.381672 0.148462)
(-0.147431 0.223379 0.0702883)
(-0.196953 0.168495 0.0441145)
(-0.174479 0.108101 0.0242428)
(-0.157484 0.0624531 0.00412078)
(-0.139971 0.0202208 -0.00399497)
(-0.422385 -0.0629812 1.52566)
(-0.870663 0.171749 1.55983)
(-0.324025 0.627004 0.432137)
(-0.281385 0.479963 0.0569475)
(-0.214921 0.29144 0.15123)
(-0.222158 0.179491 0.073976)
(-0.211553 0.142571 0.055135)
(-0.204172 0.0901213 0.0336689)
(-0.179325 0.0518178 0.00886884)
(-0.162259 0.0174077 -0.00187376)
(-0.627827 -0.166726 1.51651)
(-0.987859 0.139491 1.509)
(-0.46454 0.498125 0.37843)
(-0.360014 0.391969 0.109313)
(-0.197925 0.184721 0.118377)
(-0.281169 0.142897 0.0922596)
(-0.226998 0.101053 0.0654794)
(-0.22596 0.0709646 0.0403516)
(-0.197222 0.0381342 0.0133346)
(-0.179937 0.0135819 -0.000111397)
(-0.748917 -0.129997 1.4988)
(-1.11465 0.0958003 1.34896)
(-0.528279 0.343197 0.257982)
(-0.347156 0.209166 0.125292)
(-0.252918 0.108559 0.119489)
(-0.284112 0.0954379 0.107329)
(-0.254868 0.0565214 0.0744914)
(-0.236436 0.0470041 0.0444873)
(-0.210755 0.0229644 0.0168432)
(-0.192146 0.00873686 0.00107468)
(-0.816249 -0.0528147 1.44576)
(-1.20458 0.037721 1.26615)
(-0.51548 0.137647 0.20852)
(-0.291565 0.0403645 0.125059)
(-0.32411 0.0423387 0.134154)
(-0.254609 0.0322194 0.119561)
(-0.278617 0.0178556 0.0775323)
(-0.239063 0.0166802 0.0469661)
(-0.218291 0.00761688 0.01868)
(-0.198352 0.00302143 0.00166471)
(-0.816247 0.0528572 1.44582)
(-1.20461 -0.0377651 1.26613)
(-0.515472 -0.137593 0.2085)
(-0.291557 -0.0403568 0.125059)
(-0.324114 -0.0423504 0.134158)
(-0.254604 -0.0322183 0.119563)
(-0.278617 -0.0178556 0.0775326)
(-0.239062 -0.0166802 0.0469663)
(-0.218291 -0.00761774 0.0186802)
(-0.198352 -0.00302257 0.00166462)
(-0.748866 0.130115 1.4989)
(-1.11467 -0.0958563 1.34894)
(-0.528277 -0.343109 0.257921)
(-0.347136 -0.209128 0.125274)
(-0.252926 -0.108567 0.119494)
(-0.284103 -0.0954388 0.107329)
(-0.254866 -0.0565211 0.0744924)
(-0.236433 -0.0470049 0.0444877)
(-0.210754 -0.022965 0.0168435)
(-0.192145 -0.00873783 0.00107444)
(-0.627796 0.166811 1.51658)
(-0.987779 -0.139539 1.50904)
(-0.464567 -0.498023 0.378418)
(-0.360003 -0.391929 0.10929)
(-0.197927 -0.184736 0.118375)
(-0.281168 -0.142901 0.0922564)
(-0.226991 -0.101053 0.0654808)
(-0.225956 -0.0709658 0.0403522)
(-0.197219 -0.0381345 0.0133352)
(-0.179935 -0.0135826 -0.000111803)
(-0.42244 0.0631713 1.52552)
(-0.870578 -0.171804 1.55987)
(-0.324065 -0.626904 0.432179)
(-0.28139 -0.479941 0.0569233)
(-0.214911 -0.291405 0.151212)
(-0.222151 -0.179489 0.0739705)
(-0.211543 -0.142571 0.055135)
(-0.204167 -0.0901222 0.0336697)
(-0.179321 -0.0518179 0.00886944)
(-0.162257 -0.0174079 -0.00187429)
(-0.0885074 -0.319094 1.79841)
(-0.649398 -0.482472 1.82412)
(-0.179437 -0.71172 0.380981)
(-0.201366 -0.500051 0.00458281)
(-0.207341 -0.381691 0.148475)
(-0.147443 -0.223392 0.0702825)
(-0.196945 -0.168495 0.0441135)
(-0.174471 -0.108101 0.0242433)
(-0.157479 -0.0624527 0.00412141)
(-0.139967 -0.0202205 -0.00399566)
(0.140141 -0.743178 1.86341)
(-0.302341 -0.962402 2.09086)
(-0.0460229 -0.734041 0.252835)
(-0.114379 -0.505585 -0.025772)
(-0.128164 -0.427179 0.0844075)
(-0.114134 -0.270285 0.094366)
(-0.162862 -0.181691 0.0304993)
(-0.144351 -0.123914 0.0146638)
(-0.131286 -0.0693274 -0.000508827)
(-0.11437 -0.0219076 -0.00626087)
(0.152255 -0.907901 1.32131)
(-0.0611632 -1.15763 1.6946)
(0.0480019 -0.664835 0.103856)
(-0.0257097 -0.497279 -0.0481916)
(-0.06358 -0.425681 0.0218958)
(-0.113664 -0.308049 0.111873)
(-0.116139 -0.195021 0.0212296)
(-0.114735 -0.133398 0.00638666)
(-0.101836 -0.0731505 -0.00471943)
(-0.0869118 -0.0221326 -0.00791251)
(0.10673 -0.798112 0.793198)
(0.0837362 -1.04112 1.07695)
(0.0903566 -0.528113 -0.0079009)
(0.00670102 -0.467837 -0.0497911)
(-0.0476029 -0.400939 0.00964194)
(-0.0942447 -0.334178 0.0841402)
(-0.0794872 -0.217289 0.0283567)
(-0.0825505 -0.138165 0.000509199)
(-0.0710532 -0.0743676 -0.00774715)
(-0.0589107 -0.0208249 -0.00862402)
(0.0444819 -0.524662 0.572839)
(0.135655 -0.620831 0.622884)
(0.0854744 -0.408908 -0.0520111)
(0.00913736 -0.438947 -0.0301098)
(-0.0343101 -0.388435 0.015634)
(-0.0518167 -0.335258 0.0301807)
(-0.0579113 -0.240504 0.03607)
(-0.0512424 -0.144486 0.00273996)
(-0.0409706 -0.0735139 -0.00778032)
(-0.0320546 -0.0181676 -0.00752378)
(0.017685 -0.103279 0.338207)
(0.110233 -0.131028 0.276846)
(0.0443229 -0.33676 -0.0164679)
(0.00642905 -0.426183 -0.00551865)
(-0.00980178 -0.394872 0.00832835)
(-0.0143704 -0.333333 0.00532487)
(-0.0275478 -0.249102 0.0158063)
(-0.0236939 -0.153414 0.00668509)
(-0.0165308 -0.0733588 -0.0021247)
(-0.0102331 -0.014054 -0.00360082)
(0.0192446 -0.159125 0.139538)
(0.0868846 -0.088055 0.0929963)
(0.0497463 0.241866 0.00160209)
(0.0198155 0.409873 0.00662339)
(-0.000228308 0.435685 0.0166624)
(-0.0115717 0.399085 0.0175853)
(-0.0328474 0.31714 0.0280735)
(-0.0302117 0.189265 0.0179343)
(-0.0192149 0.0683786 -0.00714274)
(-0.00374589 -0.00347141 -0.0153751)
(0.0385764 -0.0884182 0.270153)
(0.184829 -0.00640991 0.268378)
(0.152299 0.242133 -0.00857794)
(0.0604758 0.413568 0.00671421)
(-0.00106933 0.427852 0.0473425)
(-0.0373502 0.397814 0.0476985)
(-0.0495275 0.316131 0.0852001)
(-0.0451069 0.175823 0.0141522)
(-0.0419177 0.0740785 -0.0227659)
(-0.0215969 0.00916674 -0.0256969)
(0.0886374 0.0959778 0.500359)
(0.301329 0.253467 0.63165)
(0.259062 0.298036 0.0482852)
(0.108044 0.444024 0.0125507)
(-0.000208658 0.44398 0.0638036)
(-0.0628688 0.401435 0.124505)
(-0.0468204 0.286956 0.100072)
(-0.0805345 0.159317 0.00537926)
(-0.0782267 0.0780716 -0.0240661)
(-0.0503452 0.0171155 -0.0272589)
(0.206395 0.470352 1.06986)
(0.332588 0.744857 1.38251)
(0.318428 0.469947 0.173466)
(0.154096 0.495257 0.0212042)
(0.010566 0.468408 0.0697979)
(-0.0608851 0.387108 0.211837)
(-0.0749972 0.247314 0.0977814)
(-0.124579 0.154208 0.0147535)
(-0.115235 0.0802534 -0.0163813)
(-0.0827067 0.0219994 -0.0246731)
(0.352852 0.698098 2.03554)
(0.293663 1.11314 2.46254)
(0.315653 0.685569 0.37792)
(0.136183 0.543089 0.0523285)
(-0.0101503 0.482182 0.129168)
(-0.0315915 0.35783 0.25648)
(-0.131233 0.219443 0.106518)
(-0.163083 0.146647 0.0300857)
(-0.150768 0.0781773 -0.00791965)
(-0.115741 0.0239917 -0.0204086)
(0.341128 0.504819 2.74661)
(0.0609955 1.05208 3.1917)
(0.231623 0.871655 0.712166)
(0.062762 0.569654 0.0949318)
(-0.0804298 0.465474 0.253471)
(-0.037695 0.29656 0.258589)
(-0.187104 0.1994 0.122011)
(-0.198047 0.130128 0.0473946)
(-0.183104 0.0719656 0.00145574)
(-0.147195 0.0231197 -0.0152153)
(-0.00917843 0.0954182 2.64463)
(-0.387817 0.554022 2.91817)
(0.0478579 0.882851 0.932581)
(0.0048489 0.57919 0.163271)
(-0.101707 0.414661 0.348564)
(-0.104798 0.215459 0.251311)
(-0.221447 0.174246 0.139791)
(-0.231827 0.107196 0.0649928)
(-0.210397 0.0612868 0.010145)
(-0.17502 0.0200063 -0.0102531)
(-0.364509 -0.14834 2.44716)
(-0.688918 0.156402 2.41068)
(-0.197616 0.660803 0.887904)
(-0.144123 0.529505 0.259584)
(-0.037533 0.312421 0.366987)
(-0.178663 0.151302 0.258008)
(-0.241327 0.132939 0.157996)
(-0.260015 0.0816526 0.0791049)
(-0.232015 0.0463011 0.0179694)
(-0.197439 0.015441 -0.00620452)
(-0.537217 -0.162388 2.39653)
(-0.868212 0.0932966 1.97501)
(-0.378601 0.426426 0.671085)
(-0.242716 0.361952 0.358398)
(-0.0265791 0.161765 0.349314)
(-0.217415 0.101711 0.257055)
(-0.261327 0.0789008 0.176658)
(-0.278012 0.0523633 0.0879037)
(-0.247662 0.0286623 0.0241365)
(-0.213091 0.00969404 -0.00341988)
(-0.638995 -0.0717416 2.33802)
(-1.00511 0.0470994 1.7722)
(-0.430109 0.180257 0.531179)
(-0.107114 0.114737 0.410365)
(-0.114687 0.0417369 0.349282)
(-0.221366 0.0407516 0.252921)
(-0.275505 0.0246815 0.188845)
(-0.286929 0.0181969 0.0924396)
(-0.255663 0.0097184 0.02731)
(-0.221154 0.00330201 -0.00201218)
(-0.638941 0.0716345 2.33798)
(-1.00515 -0.0470238 1.7722)
(-0.430143 -0.180052 0.531066)
(-0.10706 -0.114569 0.410349)
(-0.114708 -0.0417024 0.349272)
(-0.221362 -0.0407319 0.252925)
(-0.275504 -0.0246687 0.188847)
(-0.286928 -0.0181903 0.0924408)
(-0.255662 -0.0097166 0.0273106)
(-0.221153 -0.00330355 -0.00201233)
(-0.536985 0.162379 2.39639)
(-0.868207 -0.0932893 1.97514)
(-0.378639 -0.426249 0.670937)
(-0.242711 -0.361801 0.358386)
(-0.0266065 -0.161705 0.349299)
(-0.217422 -0.1017 0.257051)
(-0.261322 -0.0788896 0.176661)
(-0.278009 -0.0523584 0.0879063)
(-0.247661 -0.0286605 0.0241374)
(-0.21309 -0.00969539 -0.0034205)
(-0.364548 0.148575 2.44701)
(-0.688842 -0.156341 2.41057)
(-0.197688 -0.660567 0.887859)
(-0.144162 -0.529399 0.259575)
(-0.0375269 -0.312353 0.366971)
(-0.178677 -0.151297 0.258004)
(-0.241316 -0.132932 0.158)
(-0.260011 -0.0816492 0.0791099)
(-0.232013 -0.0462995 0.0179715)
(-0.197437 -0.0154419 -0.00620545)
(-0.00927939 -0.0951405 2.64442)
(-0.387856 -0.553814 2.91789)
(0.047779 -0.882666 0.932692)
(0.00486027 -0.57913 0.16326)
(-0.101694 -0.414643 0.348546)
(-0.104805 -0.215454 0.251303)
(-0.221434 -0.174244 0.139795)
(-0.23182 -0.107194 0.0649986)
(-0.210393 -0.0612856 0.0101475)
(-0.175017 -0.0200066 -0.0102542)
(0.341162 -0.504529 2.74664)
(0.0609404 -1.05186 3.19172)
(0.231591 -0.871603 0.71233)
(0.0627675 -0.569617 0.0949046)
(-0.0804164 -0.46546 0.253429)
(-0.0376764 -0.29656 0.258576)
(-0.18709 -0.199402 0.122015)
(-0.198038 -0.130127 0.0474008)
(-0.183098 -0.0719649 0.00145907)
(-0.14719 -0.0231195 -0.015217)
(0.352966 -0.6978 2.0358)
(0.293685 -1.11303 2.46289)
(0.315633 -0.685543 0.37795)
(0.136181 -0.543051 0.0522924)
(-0.0101219 -0.482146 0.129148)
(-0.0315568 -0.357834 0.256468)
(-0.131212 -0.219449 0.106522)
(-0.163071 -0.146649 0.0300898)
(-0.150762 -0.0781779 -0.00791699)
(-0.115734 -0.0239911 -0.020411)
(0.206491 -0.470235 1.06998)
(0.33259 -0.744856 1.3827)
(0.318412 -0.469904 0.173441)
(0.154103 -0.495217 0.0211667)
(0.0105973 -0.468377 0.0697608)
(-0.060839 -0.387097 0.21182)
(-0.074963 -0.247315 0.0977828)
(-0.124561 -0.154208 0.0147551)
(-0.115228 -0.0802526 -0.0163801)
(-0.0826984 -0.0219982 -0.0246769)
(0.0886668 -0.0958874 0.500401)
(0.301336 -0.253449 0.631722)
(0.259068 -0.297997 0.0482588)
(0.10806 -0.443995 0.0125277)
(-0.000188763 -0.443954 0.0637836)
(-0.0628397 -0.401417 0.124488)
(-0.046782 -0.286948 0.10007)
(-0.0805101 -0.159312 0.0053804)
(-0.0782178 -0.0780675 -0.0240664)
(-0.0503354 -0.0171129 -0.0272646)
(0.0385997 0.0884822 0.270197)
(0.184859 0.0064338 0.26838)
(0.152321 -0.242098 -0.00860061)
(0.0604924 -0.413541 0.00670484)
(-0.00105862 -0.427835 0.0473417)
(-0.0373402 -0.397804 0.0476914)
(-0.0495048 -0.316125 0.0851946)
(-0.0450835 -0.175815 0.0141526)
(-0.0419071 -0.0740711 -0.022766)
(-0.0215878 -0.00916111 -0.0257029)
(0.019257 0.15917 0.139552)
(0.0869119 0.0880654 0.0929898)
(0.0497621 -0.241821 0.00159303)
(0.0198199 -0.409835 0.00661816)
(-0.000227044 -0.43566 0.01666)
(-0.0115717 -0.399071 0.0175831)
(-0.0328459 -0.317133 0.0280701)
(-0.0302035 -0.189255 0.017932)
(-0.0192077 -0.0683661 -0.00714307)
(-0.0037397 0.00348203 -0.0153796)
(0.010587 -0.00315788 0.0690719)
(0.0419656 0.0791273 0.0522739)
(0.0401482 0.326882 0.0292322)
(0.0219851 0.481681 0.0238003)
(0.00397327 0.531659 0.0271753)
(-0.00785514 0.515648 0.0307767)
(-0.0340549 0.44741 0.0300924)
(-0.0382344 0.305272 0.0347714)
(-0.0172202 0.0946878 -0.0231584)
(0.0126851 -0.0497909 -0.0501164)
(0.0263526 -0.0149356 0.159221)
(0.121051 0.0507353 0.145601)
(0.131258 0.302205 0.0710912)
(0.0698191 0.472219 0.0612406)
(0.016263 0.518149 0.0795478)
(-0.0205267 0.511806 0.0718158)
(-0.0542159 0.458353 0.11408)
(-0.0165631 0.292614 0.0629044)
(-0.0259156 0.0998846 -0.0486384)
(0.0010258 -0.00932107 -0.0754662)
(0.0481255 -0.0246759 0.333446)
(0.219493 0.0463038 0.346439)
(0.234761 0.2904 0.13737)
(0.123816 0.489081 0.107047)
(0.0303613 0.535501 0.126064)
(-0.0368902 0.524797 0.137643)
(-0.0169079 0.445294 0.190057)
(-0.0375423 0.240552 0.0621162)
(-0.0823084 0.0924447 -0.0534684)
(-0.027749 0.00956015 -0.0766634)
(0.0957125 0.084236 0.651579)
(0.342274 0.224164 0.748329)
(0.358033 0.33586 0.250802)
(0.198582 0.520129 0.145932)
(0.0500766 0.560004 0.15469)
(-0.035368 0.520783 0.258726)
(0.00534045 0.392478 0.248753)
(-0.097999 0.218141 0.0773195)
(-0.135662 0.0999156 -0.0377856)
(-0.0717254 0.0215529 -0.0663894)
(0.198034 0.401338 1.16201)
(0.444198 0.59647 1.46547)
(0.446251 0.473571 0.455534)
(0.262102 0.570136 0.20099)
(0.0693591 0.572559 0.208395)
(0.0218629 0.506062 0.398588)
(-0.0298689 0.33359 0.290374)
(-0.160661 0.202525 0.0956825)
(-0.184472 0.0969669 -0.025665)
(-0.116849 0.0267147 -0.0566522)
(0.432681 0.763046 2.58637)
(0.520586 1.20669 3.06245)
(0.487412 0.740089 0.771288)
(0.247669 0.622999 0.263441)
(0.0374302 0.558494 0.365363)
(0.078595 0.453053 0.498882)
(-0.0964308 0.279641 0.316504)
(-0.215996 0.178952 0.116498)
(-0.228892 0.089259 -0.0106717)
(-0.160744 0.0274136 -0.0454728)
(0.346227 0.463197 3.36066)
(0.234248 1.16201 4.00516)
(0.41945 1.03765 1.31584)
(0.24085 0.680818 0.338988)
(0.022941 0.519039 0.550837)
(0.0588744 0.340289 0.543828)
(-0.156055 0.226526 0.336366)
(-0.262514 0.148436 0.141551)
(-0.266872 0.0759871 0.0031895)
(-0.199328 0.0244493 -0.0359731)
(-0.0486868 0.0381241 3.32687)
(-0.273126 0.566234 3.65063)
(0.148852 0.94778 1.56496)
(0.166685 0.671758 0.448338)
(0.113662 0.453485 0.655335)
(0.00953863 0.225317 0.565549)
(-0.192508 0.166813 0.358855)
(-0.299915 0.112984 0.163693)
(-0.296892 0.0579299 0.0153935)
(-0.230376 0.0191453 -0.0284376)
(-0.324182 -0.125372 3.17986)
(-0.639923 0.173443 2.72134)
(-0.185751 0.609584 1.26318)
(-0.0534881 0.5231 0.581279)
(0.209169 0.287845 0.691247)
(-0.0166792 0.138103 0.575016)
(-0.212353 0.101944 0.381425)
(-0.325388 0.0717435 0.180512)
(-0.318254 0.0358975 0.0251133)
(-0.252659 0.0121642 -0.0233876)
(-0.465274 -0.0678366 3.08932)
(-0.868278 0.072874 2.19941)
(-0.386697 0.260122 0.939)
(0.0219383 0.219796 0.733085)
(0.228452 0.0867588 0.718509)
(-0.0378461 0.049325 0.574116)
(-0.22769 0.0349972 0.381584)
(-0.337051 0.0245783 0.190799)
(-0.329884 0.0121149 0.0297831)
(-0.263977 0.0041391 -0.0209347)
(-0.465184 0.0677307 3.08911)
(-0.868272 -0.0727258 2.1995)
(-0.386702 -0.259864 0.938938)
(0.0219923 -0.21949 0.733143)
(0.228457 -0.0866378 0.718512)
(-0.0378522 -0.0492726 0.574114)
(-0.227688 -0.0349595 0.381586)
(-0.337049 -0.024556 0.190803)
(-0.329884 -0.012105 0.029785)
(-0.263977 -0.00414079 -0.0209351)
(-0.323948 0.125373 3.17917)
(-0.639989 -0.173207 2.72129)
(-0.185817 -0.609306 1.26301)
(-0.0535279 -0.522895 0.581353)
(0.209182 -0.287724 0.691235)
(-0.0166955 -0.138066 0.575009)
(-0.212346 -0.101913 0.381438)
(-0.325386 -0.0717228 0.18052)
(-0.318253 -0.0358882 0.0251166)
(-0.252658 -0.0121657 -0.0233893)
(-0.0487696 -0.0379024 3.32655)
(-0.273218 -0.56585 3.65021)
(0.148779 -0.947499 1.5651)
(0.166656 -0.671621 0.448418)
(0.113711 -0.453389 0.655319)
(0.00952664 -0.225277 0.565537)
(-0.192504 -0.166788 0.358865)
(-0.299912 -0.112968 0.163709)
(-0.29689 -0.0579219 0.0154008)
(-0.230375 -0.0191461 -0.0284399)
(0.346221 -0.463004 3.36062)
(0.23422 -1.16153 4.0052)
(0.419471 -1.03753 1.31627)
(0.240897 -0.680733 0.339069)
(0.0229771 -0.518959 0.550793)
(0.0588707 -0.340244 0.543818)
(-0.156055 -0.226506 0.336381)
(-0.262511 -0.148425 0.141569)
(-0.266869 -0.0759812 0.00319781)
(-0.199325 -0.0244497 -0.035976)
(0.432861 -0.762787 2.58641)
(0.520817 -1.20655 3.06315)
(0.487477 -0.740091 0.771504)
(0.247679 -0.622941 0.263457)
(0.0374495 -0.558416 0.365331)
(0.0786159 -0.453013 0.498883)
(-0.0964323 -0.279625 0.316524)
(-0.215991 -0.178946 0.116518)
(-0.228889 -0.089255 -0.0106609)
(-0.160739 -0.0274143 -0.0454764)
(0.198175 -0.401256 1.16209)
(0.444329 -0.596477 1.46593)
(0.446271 -0.473529 0.455597)
(0.262126 -0.570076 0.200974)
(0.0693931 -0.572499 0.208422)
(0.0219051 -0.506037 0.398594)
(-0.0298539 -0.333585 0.290397)
(-0.160653 -0.202528 0.0957017)
(-0.184467 -0.096967 -0.0256555)
(-0.116839 -0.0267158 -0.0566578)
(0.0957541 -0.084041 0.651722)
(0.342314 -0.22405 0.748515)
(0.358061 -0.33577 0.250802)
(0.198624 -0.520058 0.145907)
(0.0501139 -0.559947 0.154657)
(-0.0353239 -0.520748 0.258704)
(0.00538544 -0.392469 0.248765)
(-0.0979748 -0.218143 0.077338)
(-0.135652 -0.0999167 -0.0377788)
(-0.0717108 -0.0215538 -0.0663989)
(0.0481304 0.0248469 0.333562)
(0.21952 -0.0461741 0.346496)
(0.234801 -0.290301 0.137357)
(0.123854 -0.489021 0.107043)
(0.0303877 -0.535459 0.126059)
(-0.0368634 -0.524764 0.13762)
(-0.0168574 -0.445279 0.190046)
(-0.0374991 -0.240546 0.0621295)
(-0.0822914 -0.0924427 -0.0534649)
(-0.0277285 -0.00955763 -0.076679)
(0.0263651 0.0150532 0.159226)
(0.121084 -0.0506292 0.14559)
(0.131288 -0.302129 0.0710912)
(0.0698437 -0.472175 0.0612461)
(0.01628 -0.518128 0.0795543)
(-0.0205136 -0.511792 0.0718116)
(-0.0541913 -0.45835 0.114065)
(-0.0165199 -0.29261 0.0629059)
(-0.0258895 -0.0998799 -0.0486391)
(0.00104675 0.00932978 -0.075483)
(0.0105938 0.00327388 0.0690831)
(0.0419804 -0.0790319 0.0522805)
(0.0401596 -0.326806 0.0292298)
(0.0219912 -0.481631 0.0237953)
(0.00397629 -0.53163 0.0271704)
(-0.00785198 -0.515631 0.0307728)
(-0.0340519 -0.447406 0.0300858)
(-0.0382209 -0.30527 0.034764)
(-0.0172006 -0.0946759 -0.0231653)
(0.0127006 0.0498189 -0.0501312)
(0.00912563 0.272938 0.060995)
(0.0258532 0.337867 0.0526781)
(0.0303377 0.497696 0.0389265)
(0.0201775 0.618832 0.0333697)
(0.0054162 0.672315 0.0344831)
(-0.00590303 0.665354 0.0370103)
(-0.0253364 0.613036 0.0309898)
(-0.0532243 0.488252 0.0330265)
(-0.0149683 0.227203 -0.0277362)
(0.0490765 -0.0980382 -0.1486)
(0.0217247 0.228136 0.181956)
(0.0841321 0.292597 0.170878)
(0.101031 0.467684 0.127563)
(0.0620812 0.602797 0.106365)
(0.0184111 0.655967 0.104562)
(-0.0130065 0.656605 0.0988799)
(-0.0624877 0.625638 0.0999595)
(-0.0220385 0.502711 0.116552)
(0.0231536 0.211544 -0.0391734)
(0.0200886 -0.0187801 -0.173474)
(0.0414368 0.195108 0.311149)
(0.144415 0.250675 0.308186)
(0.17991 0.457762 0.228974)
(0.10868 0.616533 0.188397)
(0.0402774 0.673161 0.167725)
(-0.0169061 0.683012 0.155781)
(-0.0384266 0.649547 0.198077)
(0.0196834 0.438229 0.18484)
(-0.0562712 0.157901 -0.0456684)
(-0.00512348 0.00404864 -0.170557)
(0.065747 0.174771 0.527532)
(0.233487 0.251387 0.504203)
(0.276286 0.453371 0.32068)
(0.172148 0.643901 0.249547)
(0.0597197 0.705378 0.233956)
(-0.0230464 0.694531 0.263697)
(0.0316149 0.624286 0.355786)
(-0.00983787 0.373901 0.254394)
(-0.134504 0.157147 -0.0236875)
(-0.0625409 0.0263658 -0.14575)
(0.0978741 0.218794 0.87771)
(0.349815 0.330128 0.937229)
(0.393557 0.493142 0.520174)
(0.262474 0.682568 0.320556)
(0.0864883 0.729783 0.305811)
(0.019075 0.682497 0.464488)
(0.0745535 0.552707 0.524091)
(-0.0796947 0.32277 0.294092)
(-0.205319 0.137947 -0.0175077)
(-0.125951 0.02864 -0.127917)
(0.214824 0.582993 1.77561)
(0.48101 0.701838 1.71257)
(0.484776 0.590417 0.730826)
(0.293859 0.710865 0.437098)
(0.0853677 0.718337 0.462857)
(0.122339 0.637572 0.705918)
(0.0494578 0.456361 0.635221)
(-0.158554 0.268622 0.315791)
(-0.270734 0.119891 -0.000250636)
(-0.19239 0.0295984 -0.104961)
(0.430951 0.790347 3.50613)
(0.571979 1.4038 3.81209)
(0.560572 0.932941 1.25997)
(0.307291 0.756948 0.560628)
(0.0798751 0.663394 0.720937)
(0.188268 0.50976 0.895497)
(-0.00686788 0.351643 0.694135)
(-0.22673 0.212858 0.339227)
(-0.325068 0.0988526 0.0187473)
(-0.247093 0.0256845 -0.0883572)
(0.208546 0.354356 4.10498)
(0.151789 1.14862 4.68755)
(0.427935 1.09114 2.00115)
(0.344531 0.77285 0.739251)
(0.195795 0.591192 0.935564)
(0.205022 0.341558 0.984472)
(-0.0522597 0.244412 0.729489)
(-0.279356 0.15583 0.364139)
(-0.368571 0.0738604 0.0360079)
(-0.292203 0.019696 -0.0755558)
(-0.170029 -0.0250779 3.97132)
(-0.435065 0.446275 3.83343)
(0.0672758 0.807239 1.96341)
(0.151845 0.65454 0.901428)
(0.362466 0.423574 1.05792)
(0.24159 0.194139 1.02284)
(-0.0758036 0.14173 0.756689)
(-0.313883 0.0955495 0.391872)
(-0.40097 0.0452944 0.0501007)
(-0.327393 0.0119735 -0.0669178)
(-0.370119 -0.0496131 3.77758)
(-0.809318 0.148138 2.78073)
(-0.297486 0.367065 1.48151)
(0.124799 0.309627 1.11768)
(0.515126 0.156776 1.16324)
(0.28591 0.0605417 1.05455)
(-0.087836 0.0475488 0.770414)
(-0.328493 0.0322628 0.406977)
(-0.416464 0.01548 0.0575196)
(-0.341861 0.0040831 -0.0635518)
(-0.370014 0.0493932 3.77717)
(-0.809401 -0.147773 2.78054)
(-0.297601 -0.366569 1.48138)
(0.124831 -0.309364 1.11777)
(0.51518 -0.156629 1.16328)
(0.28592 -0.060464 1.05455)
(-0.0878368 -0.0474705 0.770414)
(-0.328492 -0.0321992 0.406982)
(-0.416463 -0.0154538 0.0575226)
(-0.341862 -0.00408509 -0.0635525)
(-0.169882 0.0250326 3.96996)
(-0.435384 -0.445684 3.83272)
(0.0671469 -0.806924 1.96332)
(0.151826 -0.654402 0.901576)
(0.362556 -0.423447 1.05797)
(0.241591 -0.19405 1.02285)
(-0.0758185 -0.141651 0.75669)
(-0.313886 -0.0954915 0.391882)
(-0.400971 -0.0452684 0.0501062)
(-0.327394 -0.011975 -0.0669218)
(0.208505 -0.35422 4.10455)
(0.15151 -1.1479 4.68714)
(0.42788 -1.09093 2.00147)
(0.344534 -0.77275 0.739406)
(0.19587 -0.591114 0.935639)
(0.20502 -0.341458 0.98449)
(-0.0522859 -0.244338 0.729499)
(-0.279368 -0.155779 0.364153)
(-0.36857 -0.0738382 0.0360228)
(-0.292205 -0.0196965 -0.0755607)
(0.431002 -0.790246 3.50589)
(0.57203 -1.40348 3.81268)
(0.560617 -0.932995 1.26037)
(0.307304 -0.756895 0.560752)
(0.0798769 -0.66335 0.720971)